MODEL 1
REMARK VINA RESULT:    -4.714      0.000      0.000
REMARK INTER + INTRA:          -5.502
REMARK INTER:                  -5.403
REMARK INTRA:                  -0.099
REMARK UNBOUND:                -0.099
REMARK  Name = 
REMARK  3 active torsions:
REMARK  status: ('A' for Active; 'I' for Inactive)
REMARK    1  A    between atoms: C_7  and  C_10
REMARK    2  A    between atoms: C_10  and  C_11
REMARK    3  A    between atoms: C_11  and  O_13
REMARK                            x       y       z     vdW  Elec       q    Type
REMARK                         _______ _______ _______ _____ _____    ______ ____
ROOT
ATOM      1  C   UNL     1     153.050 162.988 187.424  1.00  0.00    +0.000 A 
ATOM      2  C   UNL     1     153.079 161.747 188.055  1.00  0.00    +0.000 A 
ATOM      3  C   UNL     1     153.920 161.514 189.148  1.00  0.00    +0.000 A 
ATOM      4  C   UNL     1     154.725 162.573 189.583  1.00  0.00    +0.000 A 
ATOM      5  C   UNL     1     154.719 163.827 188.973  1.00  0.00    +0.000 A 
ATOM      6  C   UNL     1     153.864 164.035 187.871  1.00  0.00    +0.000 A 
ATOM      7  C   UNL     1     155.642 164.657 189.688  1.00  0.00    +0.000 A 
ATOM      8  C   UNL     1     156.184 163.878 190.693  1.00  0.00    +0.000 A 
ATOM      9  N   UNL     1     155.634 162.627 190.614  1.00  0.00    +0.000 N 
ATOM     10  H   UNL     1     155.855 161.852 191.224  1.00  0.00    +0.000 HD
ENDROOT
BRANCH   7  11
ATOM     11  C   UNL     1     155.956 166.095 189.411  1.00  0.00    +0.000 C 
BRANCH  11  12
ATOM     12  C   UNL     1     157.238 166.602 190.040  1.00  0.00    +0.000 C 
ATOM     13  O   UNL     1     157.239 167.361 191.003  1.00  0.00    +0.000 OA
BRANCH  12  14
ATOM     14  O   UNL     1     158.395 166.120 189.532  1.00  0.00    +0.000 OA
ATOM     15  H   UNL     1     158.631 165.226 189.849  1.00  0.00    +0.000 HD
ENDBRANCH  12  14
ENDBRANCH  11  12
ENDBRANCH   7  11
TORSDOF 3
ENDMDL
MODEL 2
REMARK VINA RESULT:    -4.372      8.515     10.298
REMARK INTER + INTRA:          -5.110
REMARK INTER:                  -4.918
REMARK INTRA:                  -0.192
REMARK UNBOUND:                -0.099
REMARK  Name = 
REMARK  3 active torsions:
REMARK  status: ('A' for Active; 'I' for Inactive)
REMARK    1  A    between atoms: C_7  and  C_10
REMARK    2  A    between atoms: C_10  and  C_11
REMARK    3  A    between atoms: C_11  and  O_13
REMARK                            x       y       z     vdW  Elec       q    Type
REMARK                         _______ _______ _______ _____ _____    ______ ____
ROOT
ATOM      1  C   UNL     1     157.270 166.390 197.298  1.00  0.00    +0.000 A 
ATOM      2  C   UNL     1     157.322 166.607 195.923  1.00  0.00    +0.000 A 
ATOM      3  C   UNL     1     158.516 166.981 195.297  1.00  0.00    +0.000 A 
ATOM      4  C   UNL     1     159.652 167.122 196.102  1.00  0.00    +0.000 A 
ATOM      5  C   UNL     1     159.633 166.912 197.480  1.00  0.00    +0.000 A 
ATOM      6  C   UNL     1     158.416 166.539 198.088  1.00  0.00    +0.000 A 
ATOM      7  C   UNL     1     160.964 167.127 197.966  1.00  0.00    +0.000 A 
ATOM      8  C   UNL     1     161.736 167.472 196.873  1.00  0.00    +0.000 A 
ATOM      9  N   UNL     1     160.937 167.476 195.762  1.00  0.00    +0.000 N 
ATOM     10  H   UNL     1     161.240 167.702 194.824  1.00  0.00    +0.000 HD
ENDROOT
BRANCH   7  11
ATOM     11  C   UNL     1     161.435 166.993 199.381  1.00  0.00    +0.000 C 
BRANCH  11  12
ATOM     12  C   UNL     1     161.447 165.576 199.919  1.00  0.00    +0.000 C 
ATOM     13  O   UNL     1     161.026 165.296 201.036  1.00  0.00    +0.000 OA
BRANCH  12  14
ATOM     14  O   UNL     1     161.882 164.611 199.077  1.00  0.00    +0.000 OA
ATOM     15  H   UNL     1     162.803 164.728 198.773  1.00  0.00    +0.000 HD
ENDBRANCH  12  14
ENDBRANCH  11  12
ENDBRANCH   7  11
TORSDOF 3
ENDMDL
MODEL 3
REMARK VINA RESULT:    -4.367     10.576     11.545
REMARK INTER + INTRA:          -5.104
REMARK INTER:                  -4.971
REMARK INTRA:                  -0.133
REMARK UNBOUND:                -0.099
REMARK  Name = 
REMARK  3 active torsions:
REMARK  status: ('A' for Active; 'I' for Inactive)
REMARK    1  A    between atoms: C_7  and  C_10
REMARK    2  A    between atoms: C_10  and  C_11
REMARK    3  A    between atoms: C_11  and  O_13
REMARK                            x       y       z     vdW  Elec       q    Type
REMARK                         _______ _______ _______ _____ _____    ______ ____
ROOT
ATOM      1  C   UNL     1     157.389 166.064 198.946  1.00  0.00    +0.000 A 
ATOM      2  C   UNL     1     157.236 165.297 200.098  1.00  0.00    +0.000 A 
ATOM      3  C   UNL     1     158.345 164.901 200.852  1.00  0.00    +0.000 A 
ATOM      4  C   UNL     1     159.608 165.307 200.409  1.00  0.00    +0.000 A 
ATOM      5  C   UNL     1     159.795 166.074 199.260  1.00  0.00    +0.000 A 
ATOM      6  C   UNL     1     158.661 166.459 198.516  1.00  0.00    +0.000 A 
ATOM      7  C   UNL     1     161.202 166.313 199.127  1.00  0.00    +0.000 A 
ATOM      8  C   UNL     1     161.817 165.673 200.186  1.00  0.00    +0.000 A 
ATOM      9  N   UNL     1     160.852 165.064 200.943  1.00  0.00    +0.000 N 
ATOM     10  H   UNL     1     161.022 164.517 201.776  1.00  0.00    +0.000 HD
ENDROOT
BRANCH   7  11
ATOM     11  C   UNL     1     161.879 167.110 198.055  1.00  0.00    +0.000 C 
BRANCH  11  12
ATOM     12  C   UNL     1     163.393 167.064 198.085  1.00  0.00    +0.000 C 
ATOM     13  O   UNL     1     164.061 167.879 198.712  1.00  0.00    +0.000 OA
BRANCH  12  14
ATOM     14  O   UNL     1     163.982 166.030 197.440  1.00  0.00    +0.000 OA
ATOM     15  H   UNL     1     164.547 166.295 196.689  1.00  0.00    +0.000 HD
ENDBRANCH  12  14
ENDBRANCH  11  12
ENDBRANCH   7  11
TORSDOF 3
ENDMDL
MODEL 4
REMARK VINA RESULT:    -4.355     11.386     13.048
REMARK INTER + INTRA:          -5.090
REMARK INTER:                  -4.989
REMARK INTRA:                  -0.102
REMARK UNBOUND:                -0.099
REMARK  Name = 
REMARK  3 active torsions:
REMARK  status: ('A' for Active; 'I' for Inactive)
REMARK    1  A    between atoms: C_7  and  C_10
REMARK    2  A    between atoms: C_10  and  C_11
REMARK    3  A    between atoms: C_11  and  O_13
REMARK                            x       y       z     vdW  Elec       q    Type
REMARK                         _______ _______ _______ _____ _____    ______ ____
ROOT
ATOM      1  C   UNL     1     158.151 165.065 204.396  1.00  0.00    +0.000 A 
ATOM      2  C   UNL     1     156.862 164.754 203.973  1.00  0.00    +0.000 A 
ATOM      3  C   UNL     1     156.549 164.677 202.611  1.00  0.00    +0.000 A 
ATOM      4  C   UNL     1     157.579 164.920 201.695  1.00  0.00    +0.000 A 
ATOM      5  C   UNL     1     158.880 165.234 202.087  1.00  0.00    +0.000 A 
ATOM      6  C   UNL     1     159.169 165.308 203.466  1.00  0.00    +0.000 A 
ATOM      7  C   UNL     1     159.660 165.396 200.896  1.00  0.00    +0.000 A 
ATOM      8  C   UNL     1     158.806 165.190 199.830  1.00  0.00    +0.000 A 
ATOM      9  N   UNL     1     157.558 164.915 200.320  1.00  0.00    +0.000 N 
ATOM     10  H   UNL     1     156.737 164.731 199.760  1.00  0.00    +0.000 HD
ENDROOT
BRANCH   7  11
ATOM     11  C   UNL     1     161.121 165.716 200.818  1.00  0.00    +0.000 C 
BRANCH  11  12
ATOM     12  C   UNL     1     161.741 165.536 199.447  1.00  0.00    +0.000 C 
ATOM     13  O   UNL     1     162.106 166.487 198.764  1.00  0.00    +0.000 OA
BRANCH  12  14
ATOM     14  O   UNL     1     161.943 164.264 199.033  1.00  0.00    +0.000 OA
ATOM     15  H   UNL     1     161.779 164.121 198.081  1.00  0.00    +0.000 HD
ENDBRANCH  12  14
ENDBRANCH  11  12
ENDBRANCH   7  11
TORSDOF 3
ENDMDL
MODEL 5
REMARK VINA RESULT:    -4.334     10.618     11.791
REMARK INTER + INTRA:          -5.067
REMARK INTER:                  -5.017
REMARK INTRA:                  -0.050
REMARK UNBOUND:                -0.099
REMARK  Name = 
REMARK  3 active torsions:
REMARK  status: ('A' for Active; 'I' for Inactive)
REMARK    1  A    between atoms: C_7  and  C_10
REMARK    2  A    between atoms: C_10  and  C_11
REMARK    3  A    between atoms: C_11  and  O_13
REMARK                            x       y       z     vdW  Elec       q    Type
REMARK                         _______ _______ _______ _____ _____    ______ ____
ROOT
ATOM      1  C   UNL     1     159.069 166.054 199.690  1.00  0.00    +0.000 A 
ATOM      2  C   UNL     1     159.606 165.248 200.691  1.00  0.00    +0.000 A 
ATOM      3  C   UNL     1     160.979 165.247 200.955  1.00  0.00    +0.000 A 
ATOM      4  C   UNL     1     161.788 166.087 200.181  1.00  0.00    +0.000 A 
ATOM      5  C   UNL     1     161.281 166.905 199.172  1.00  0.00    +0.000 A 
ATOM      6  C   UNL     1     159.893 166.886 198.924  1.00  0.00    +0.000 A 
ATOM      7  C   UNL     1     162.383 167.630 198.612  1.00  0.00    +0.000 A 
ATOM      8  C   UNL     1     163.516 167.217 199.287  1.00  0.00    +0.000 A 
ATOM      9  N   UNL     1     163.149 166.284 200.219  1.00  0.00    +0.000 N 
ATOM     10  H   UNL     1     163.779 165.808 200.850  1.00  0.00    +0.000 HD
ENDROOT
BRANCH   7  11
ATOM     11  C   UNL     1     162.323 168.647 197.515  1.00  0.00    +0.000 C 
BRANCH  11  12
ATOM     12  C   UNL     1     161.490 168.243 196.315  1.00  0.00    +0.000 C 
ATOM     13  O   UNL     1     160.554 168.923 195.909  1.00  0.00    +0.000 OA
BRANCH  12  14
ATOM     14  O   UNL     1     161.871 167.123 195.660  1.00  0.00    +0.000 OA
ATOM     15  H   UNL     1     162.792 166.848 195.837  1.00  0.00    +0.000 HD
ENDBRANCH  12  14
ENDBRANCH  11  12
ENDBRANCH   7  11
TORSDOF 3
ENDMDL
MODEL 6
REMARK VINA RESULT:    -4.316     11.912     13.267
REMARK INTER + INTRA:          -5.046
REMARK INTER:                  -4.889
REMARK INTRA:                  -0.157
REMARK UNBOUND:                -0.099
REMARK  Name = 
REMARK  3 active torsions:
REMARK  status: ('A' for Active; 'I' for Inactive)
REMARK    1  A    between atoms: C_7  and  C_10
REMARK    2  A    between atoms: C_10  and  C_11
REMARK    3  A    between atoms: C_11  and  O_13
REMARK                            x       y       z     vdW  Elec       q    Type
REMARK                         _______ _______ _______ _____ _____    ______ ____
ROOT
ATOM      1  C   UNL     1     160.606 167.961 202.995  1.00  0.00    +0.000 A 
ATOM      2  C   UNL     1     159.572 167.041 203.150  1.00  0.00    +0.000 A 
ATOM      3  C   UNL     1     159.423 165.968 202.265  1.00  0.00    +0.000 A 
ATOM      4  C   UNL     1     160.352 165.854 201.224  1.00  0.00    +0.000 A 
ATOM      5  C   UNL     1     161.398 166.758 201.041  1.00  0.00    +0.000 A 
ATOM      6  C   UNL     1     161.524 167.832 201.947  1.00  0.00    +0.000 A 
ATOM      7  C   UNL     1     162.149 166.322 199.902  1.00  0.00    +0.000 A 
ATOM      8  C   UNL     1     161.528 165.183 199.427  1.00  0.00    +0.000 A 
ATOM      9  N   UNL     1     160.445 164.917 200.221  1.00  0.00    +0.000 N 
ATOM     10  H   UNL     1     159.805 164.144 200.098  1.00  0.00    +0.000 HD
ENDROOT
BRANCH   7  11
ATOM     11  C   UNL     1     163.377 166.966 199.337  1.00  0.00    +0.000 C 
BRANCH  11  12
ATOM     12  C   UNL     1     163.481 166.928 197.826  1.00  0.00    +0.000 C 
ATOM     13  O   UNL     1     162.850 167.695 197.107  1.00  0.00    +0.000 OA
BRANCH  12  14
ATOM     14  O   UNL     1     164.364 166.048 197.300  1.00  0.00    +0.000 OA
ATOM     15  H   UNL     1     164.971 166.435 196.639  1.00  0.00    +0.000 HD
ENDBRANCH  12  14
ENDBRANCH  11  12
ENDBRANCH   7  11
TORSDOF 3
ENDMDL
MODEL 7
REMARK VINA RESULT:    -4.175     10.542     11.864
REMARK INTER + INTRA:          -4.884
REMARK INTER:                  -4.785
REMARK INTRA:                  -0.100
REMARK UNBOUND:                -0.099
REMARK  Name = 
REMARK  3 active torsions:
REMARK  status: ('A' for Active; 'I' for Inactive)
REMARK    1  A    between atoms: C_7  and  C_10
REMARK    2  A    between atoms: C_10  and  C_11
REMARK    3  A    between atoms: C_11  and  O_13
REMARK                            x       y       z     vdW  Elec       q    Type
REMARK                         _______ _______ _______ _____ _____    ______ ____
ROOT
ATOM      1  C   UNL     1     162.592 172.418 195.625  1.00  0.00    +0.000 A 
ATOM      2  C   UNL     1     161.373 172.418 194.953  1.00  0.00    +0.000 A 
ATOM      3  C   UNL     1     160.584 171.265 194.891  1.00  0.00    +0.000 A 
ATOM      4  C   UNL     1     161.063 170.117 195.533  1.00  0.00    +0.000 A 
ATOM      5  C   UNL     1     162.280 170.084 196.214  1.00  0.00    +0.000 A 
ATOM      6  C   UNL     1     163.058 171.260 196.259  1.00  0.00    +0.000 A 
ATOM      7  C   UNL     1     162.434 168.766 196.754  1.00  0.00    +0.000 A 
ATOM      8  C   UNL     1     161.319 168.045 196.372  1.00  0.00    +0.000 A 
ATOM      9  N   UNL     1     160.508 168.862 195.631  1.00  0.00    +0.000 N 
ATOM     10  H   UNL     1     159.627 168.592 195.216  1.00  0.00    +0.000 HD
ENDROOT
BRANCH   7  11
ATOM     11  C   UNL     1     163.576 168.265 197.583  1.00  0.00    +0.000 C 
BRANCH  11  12
ATOM     12  C   UNL     1     163.548 166.778 197.877  1.00  0.00    +0.000 C 
ATOM     13  O   UNL     1     162.876 166.303 198.786  1.00  0.00    +0.000 OA
BRANCH  12  14
ATOM     14  O   UNL     1     164.248 165.980 197.039  1.00  0.00    +0.000 OA
ATOM     15  H   UNL     1     164.488 166.401 196.190  1.00  0.00    +0.000 HD
ENDBRANCH  12  14
ENDBRANCH  11  12
ENDBRANCH   7  11
TORSDOF 3
ENDMDL
MODEL 8
REMARK VINA RESULT:    -4.132     12.116     13.576
REMARK INTER + INTRA:          -4.835
REMARK INTER:                  -4.691
REMARK INTRA:                  -0.145
REMARK UNBOUND:                -0.099
REMARK  Name = 
REMARK  3 active torsions:
REMARK  status: ('A' for Active; 'I' for Inactive)
REMARK    1  A    between atoms: C_7  and  C_10
REMARK    2  A    between atoms: C_10  and  C_11
REMARK    3  A    between atoms: C_11  and  O_13
REMARK                            x       y       z     vdW  Elec       q    Type
REMARK                         _______ _______ _______ _____ _____    ______ ____
ROOT
ATOM      1  C   UNL     1     163.126 168.964 201.040  1.00  0.00    +0.000 A 
ATOM      2  C   UNL     1     163.869 168.924 199.863  1.00  0.00    +0.000 A 
ATOM      3  C   UNL     1     163.741 167.857 198.967  1.00  0.00    +0.000 A 
ATOM      4  C   UNL     1     162.838 166.840 199.296  1.00  0.00    +0.000 A 
ATOM      5  C   UNL     1     162.080 166.851 200.466  1.00  0.00    +0.000 A 
ATOM      6  C   UNL     1     162.230 167.937 201.354  1.00  0.00    +0.000 A 
ATOM      7  C   UNL     1     161.263 165.674 200.460  1.00  0.00    +0.000 A 
ATOM      8  C   UNL     1     161.562 164.987 199.300  1.00  0.00    +0.000 A 
ATOM      9  N   UNL     1     162.516 165.690 198.614  1.00  0.00    +0.000 N 
ATOM     10  H   UNL     1     162.926 165.412 197.732  1.00  0.00    +0.000 HD
ENDROOT
BRANCH   7  11
ATOM     11  C   UNL     1     160.267 165.269 201.503  1.00  0.00    +0.000 C 
BRANCH  11  12
ATOM     12  C   UNL     1     158.824 165.257 201.037  1.00  0.00    +0.000 C 
ATOM     13  O   UNL     1     158.111 166.253 201.093  1.00  0.00    +0.000 OA
BRANCH  12  14
ATOM     14  O   UNL     1     158.374 164.108 200.485  1.00  0.00    +0.000 OA
ATOM     15  H   UNL     1     158.578 164.011 199.534  1.00  0.00    +0.000 HD
ENDBRANCH  12  14
ENDBRANCH  11  12
ENDBRANCH   7  11
TORSDOF 3
ENDMDL
MODEL 9
REMARK VINA RESULT:    -3.966      1.803      2.520
REMARK INTER + INTRA:          -4.645
REMARK INTER:                  -4.449
REMARK INTRA:                  -0.196
REMARK UNBOUND:                -0.099
REMARK  Name = 
REMARK  3 active torsions:
REMARK  status: ('A' for Active; 'I' for Inactive)
REMARK    1  A    between atoms: C_7  and  C_10
REMARK    2  A    between atoms: C_10  and  C_11
REMARK    3  A    between atoms: C_11  and  O_13
REMARK                            x       y       z     vdW  Elec       q    Type
REMARK                         _______ _______ _______ _____ _____    ______ ____
ROOT
ATOM      1  C   UNL     1     154.712 161.864 189.903  1.00  0.00    +0.000 A 
ATOM      2  C   UNL     1     153.765 161.902 188.882  1.00  0.00    +0.000 A 
ATOM      3  C   UNL     1     153.523 163.079 188.167  1.00  0.00    +0.000 A 
ATOM      4  C   UNL     1     154.269 164.212 188.513  1.00  0.00    +0.000 A 
ATOM      5  C   UNL     1     155.223 164.207 189.530  1.00  0.00    +0.000 A 
ATOM      6  C   UNL     1     155.447 163.008 190.238  1.00  0.00    +0.000 A 
ATOM      7  C   UNL     1     155.793 165.520 189.590  1.00  0.00    +0.000 A 
ATOM      8  C   UNL     1     155.158 166.275 188.623  1.00  0.00    +0.000 A 
ATOM      9  N   UNL     1     154.238 165.484 187.990  1.00  0.00    +0.000 N 
ATOM     10  H   UNL     1     153.626 165.782 187.243  1.00  0.00    +0.000 HD
ENDROOT
BRANCH   7  11
ATOM     11  C   UNL     1     156.876 165.986 190.514  1.00  0.00    +0.000 C 
BRANCH  11  12
ATOM     12  C   UNL     1     156.472 166.090 191.971  1.00  0.00    +0.000 C 
ATOM     13  O   UNL     1     155.505 166.748 192.336  1.00  0.00    +0.000 OA
BRANCH  12  14
ATOM     14  O   UNL     1     157.190 165.359 192.854  1.00  0.00    +0.000 OA
ATOM     15  H   UNL     1     157.884 164.805 192.446  1.00  0.00    +0.000 HD
ENDBRANCH  12  14
ENDBRANCH  11  12
ENDBRANCH   7  11
TORSDOF 3
ENDMDL
