REMARK  Name = 
REMARK  3 active torsions:
REMARK  status: ('A' for Active; 'I' for Inactive)
REMARK    1  A    between atoms: C_7  and  C_10
REMARK    2  A    between atoms: C_10  and  C_11
REMARK    3  A    between atoms: C_11  and  O_13
REMARK                            x       y       z     vdW  Elec       q    Type
REMARK                         _______ _______ _______ _____ _____    ______ ____
ROOT
ATOM      1  C   UNL     1       2.271  -0.504  -0.514  1.00  0.00    +0.000 A 
ATOM      2  C   UNL     1       2.175   0.855  -0.227  1.00  0.00    +0.000 A 
ATOM      3  C   UNL     1       0.943   1.441   0.081  1.00  0.00    +0.000 A 
ATOM      4  C   UNL     1      -0.184   0.611   0.094  1.00  0.00    +0.000 A 
ATOM      5  C   UNL     1      -0.121  -0.753  -0.189  1.00  0.00    +0.000 A 
ATOM      6  C   UNL     1       1.133  -1.319  -0.499  1.00  0.00    +0.000 A 
ATOM      7  C   UNL     1      -1.448  -1.279  -0.064  1.00  0.00    +0.000 A 
ATOM      8  C   UNL     1      -2.267  -0.219   0.274  1.00  0.00    +0.000 A 
ATOM      9  N   UNL     1      -1.500   0.912   0.356  1.00  0.00    +0.000 N 
ATOM     10  H   UNL     1      -1.843   1.836   0.580  1.00  0.00    +0.000 HD
ENDROOT
BRANCH   7  11
ATOM     11  C   UNL     1      -1.869  -2.704  -0.252  1.00  0.00    +0.000 C 
BRANCH  11  12
ATOM     12  C   UNL     1      -1.926  -3.526   1.020  1.00  0.00    +0.000 C 
ATOM     13  O   UNL     1      -2.580  -4.560   1.102  1.00  0.00    +0.000 OA
BRANCH  12  14
ATOM     14  O   UNL     1      -1.159  -3.104   2.051  1.00  0.00    +0.000 OA
ATOM     15  H   UNL     1      -0.678  -2.271   1.879  1.00  0.00    +0.000 HD
ENDBRANCH  12  14
ENDBRANCH  11  12
ENDBRANCH   7  11
TORSDOF 3
