MODEL 1
REMARK VINA RESULT:    -6.585      0.000      0.000
REMARK INTER + INTRA:          -8.296
REMARK INTER:                  -8.124
REMARK INTRA:                  -0.172
REMARK UNBOUND:                -0.172
REMARK  Name = 
REMARK  6 active torsions:
REMARK  status: ('A' for Active; 'I' for Inactive)
REMARK    1  A    between atoms: C6_3  and  N6_19
REMARK    2  A    between atoms: N9_7  and  C1*_10
REMARK    3  A    between atoms: C2*_11  and  O2*_18
REMARK    4  A    between atoms: C3*_12  and  O3*_17
REMARK    5  A    between atoms: C4*_13  and  C5*_15
REMARK    6  A    between atoms: C5*_15  and  O5*_16
REMARK                            x       y       z     vdW  Elec       q    Type
REMARK                         _______ _______ _______ _____ _____    ______ ____
ROOT
ATOM      1  C2    A A   1      12.292  -6.106  -1.243  1.00  0.00    +0.000 A 
ATOM      2  N1    A A   1      13.422  -5.670  -1.843  1.00  0.00    +0.000 NA
ATOM      3  C6    A A   1      13.707  -4.349  -1.787  1.00  0.00    +0.000 A 
ATOM      4  C5    A A   1      12.833  -3.502  -1.083  1.00  0.00    +0.000 A 
ATOM      5  C4    A A   1      11.718  -4.095  -0.512  1.00  0.00    +0.000 A 
ATOM      6  N3    A A   1      11.376  -5.393  -0.557  1.00  0.00    +0.000 NA
ATOM      7  N9    A A   1      11.057  -3.072   0.110  1.00  0.00    +0.000 N 
ATOM      8  C8    A A   1      11.775  -1.925  -0.109  1.00  0.00    +0.000 A 
ATOM      9  N7    A A   1      12.862  -2.148  -0.819  1.00  0.00    +0.000 NA
ENDROOT
BRANCH   7  10
ATOM     10  C1*   A A   1       9.837  -3.200   0.879  1.00  0.00    +0.000 C 
ATOM     11  C2*   A A   1       9.272  -1.859   1.353  1.00  0.00    +0.000 C 
ATOM     12  C3*   A A   1       7.787  -2.175   1.433  1.00  0.00    +0.000 C 
ATOM     13  C4*   A A   1       7.569  -3.146   0.275  1.00  0.00    +0.000 C 
ATOM     14  O4*   A A   1       8.825  -3.830   0.057  1.00  0.00    +0.000 OA
BRANCH  12  15
ATOM     15  O3*   A A   1       7.555  -2.838   2.695  1.00  0.00    +0.000 OA
ATOM     16  H3*   A A   1       6.650  -2.618   2.978  1.00  0.00    +0.000 HD
ENDBRANCH  12  15
BRANCH  11  17
ATOM     17  O2*   A A   1       9.771  -1.438   2.623  1.00  0.00    +0.000 OA
ATOM     18  H2*   A A   1       9.411  -0.537   2.759  1.00  0.00    +0.000 HD
ENDBRANCH  11  17
BRANCH  13  19
ATOM     19  C5*   A A   1       7.140  -2.468  -1.031  1.00  0.00    +0.000 C 
BRANCH  19  20
ATOM     20  O5*   A A   1       5.762  -2.113  -1.000  1.00  0.00    +0.000 OA
ATOM     21  H5*   A A   1       5.462  -2.036  -1.925  1.00  0.00    +0.000 HD
ENDBRANCH  19  20
ENDBRANCH  13  19
ENDBRANCH   7  10
BRANCH   3  22
ATOM     22  N6    A A   1      14.868  -3.899  -2.405  1.00  0.00    +0.000 N 
ATOM     23  H61   A A   1      15.551  -3.583  -1.729  1.00  0.00    +0.000 HD
ATOM     24  H62   A A   1      14.680  -3.297  -3.200  1.00  0.00    +0.000 HD
ENDBRANCH   3  22
TORSDOF 6
ENDMDL
MODEL 2
REMARK VINA RESULT:    -5.796      3.348      6.119
REMARK INTER + INTRA:          -7.323
REMARK INTER:                  -6.954
REMARK INTRA:                  -0.369
REMARK UNBOUND:                -0.172
REMARK  Name = 
REMARK  6 active torsions:
REMARK  status: ('A' for Active; 'I' for Inactive)
REMARK    1  A    between atoms: C6_3  and  N6_19
REMARK    2  A    between atoms: N9_7  and  C1*_10
REMARK    3  A    between atoms: C2*_11  and  O2*_18
REMARK    4  A    between atoms: C3*_12  and  O3*_17
REMARK    5  A    between atoms: C4*_13  and  C5*_15
REMARK    6  A    between atoms: C5*_15  and  O5*_16
REMARK                            x       y       z     vdW  Elec       q    Type
REMARK                         _______ _______ _______ _____ _____    ______ ____
ROOT
ATOM      1  C2    A A   1       8.311  -4.302   0.292  1.00  0.00    +0.000 A 
ATOM      2  N1    A A   1       7.758  -3.158   0.757  1.00  0.00    +0.000 NA
ATOM      3  C6    A A   1       8.547  -2.066   0.871  1.00  0.00    +0.000 A 
ATOM      4  C5    A A   1       9.892  -2.164   0.474  1.00  0.00    +0.000 A 
ATOM      5  C4    A A   1      10.315  -3.399   0.010  1.00  0.00    +0.000 A 
ATOM      6  N3    A A   1       9.582  -4.519  -0.102  1.00  0.00    +0.000 NA
ATOM      7  N9    A A   1      11.632  -3.220  -0.315  1.00  0.00    +0.000 N 
ATOM      8  C8    A A   1      11.950  -1.916  -0.035  1.00  0.00    +0.000 A 
ATOM      9  N7    A A   1      10.919  -1.243   0.435  1.00  0.00    +0.000 NA
ENDROOT
BRANCH   7  10
ATOM     10  C1*   A A   1      12.507  -4.226  -0.878  1.00  0.00    +0.000 C 
ATOM     11  C2*   A A   1      13.797  -3.651  -1.466  1.00  0.00    +0.000 C 
ATOM     12  C3*   A A   1      14.751  -4.821  -1.290  1.00  0.00    +0.000 C 
ATOM     13  C4*   A A   1      14.293  -5.456   0.021  1.00  0.00    +0.000 C 
ATOM     14  O4*   A A   1      12.884  -5.159   0.163  1.00  0.00    +0.000 OA
BRANCH  12  15
ATOM     15  O3*   A A   1      14.529  -5.728  -2.391  1.00  0.00    +0.000 OA
ATOM     16  H3*   A A   1      14.413  -6.620  -2.017  1.00  0.00    +0.000 HD
ENDBRANCH  12  15
BRANCH  11  17
ATOM     17  O2*   A A   1      13.692  -3.285  -2.843  1.00  0.00    +0.000 OA
ATOM     18  H2*   A A   1      12.754  -3.436  -3.082  1.00  0.00    +0.000 HD
ENDBRANCH  11  17
BRANCH  13  19
ATOM     19  C5*   A A   1      15.037  -4.936   1.256  1.00  0.00    +0.000 C 
BRANCH  19  20
ATOM     20  O5*   A A   1      16.329  -5.521   1.366  1.00  0.00    +0.000 OA
ATOM     21  H5*   A A   1      16.378  -6.241   0.710  1.00  0.00    +0.000 HD
ENDBRANCH  19  20
ENDBRANCH  13  19
ENDBRANCH   7  10
BRANCH   3  22
ATOM     22  N6    A A   1       7.979  -0.891   1.350  1.00  0.00    +0.000 N 
ATOM     23  H61   A A   1       7.441  -0.419   0.635  1.00  0.00    +0.000 HD
ATOM     24  H62   A A   1       8.631  -0.334   1.892  1.00  0.00    +0.000 HD
ENDBRANCH   3  22
TORSDOF 6
ENDMDL
MODEL 3
REMARK VINA RESULT:    -5.788      3.136      5.799
REMARK INTER + INTRA:          -7.313
REMARK INTER:                  -6.925
REMARK INTRA:                  -0.387
REMARK UNBOUND:                -0.172
REMARK  Name = 
REMARK  6 active torsions:
REMARK  status: ('A' for Active; 'I' for Inactive)
REMARK    1  A    between atoms: C6_3  and  N6_19
REMARK    2  A    between atoms: N9_7  and  C1*_10
REMARK    3  A    between atoms: C2*_11  and  O2*_18
REMARK    4  A    between atoms: C3*_12  and  O3*_17
REMARK    5  A    between atoms: C4*_13  and  C5*_15
REMARK    6  A    between atoms: C5*_15  and  O5*_16
REMARK                            x       y       z     vdW  Elec       q    Type
REMARK                         _______ _______ _______ _____ _____    ______ ____
ROOT
ATOM      1  C2    A A   1       8.111  -4.373   0.389  1.00  0.00    +0.000 A 
ATOM      2  N1    A A   1       7.517  -3.162   0.481  1.00  0.00    +0.000 NA
ATOM      3  C6    A A   1       8.303  -2.062   0.461  1.00  0.00    +0.000 A 
ATOM      4  C5    A A   1       9.691  -2.228   0.315  1.00  0.00    +0.000 A 
ATOM      5  C4    A A   1      10.154  -3.531   0.224  1.00  0.00    +0.000 A 
ATOM      6  N3    A A   1       9.423  -4.657   0.261  1.00  0.00    +0.000 NA
ATOM      7  N9    A A   1      11.509  -3.412   0.078  1.00  0.00    +0.000 N 
ATOM      8  C8    A A   1      11.808  -2.074   0.094  1.00  0.00    +0.000 A 
ATOM      9  N7    A A   1      10.731  -1.326   0.225  1.00  0.00    +0.000 NA
ENDROOT
BRANCH   7  10
ATOM     10  C1*   A A   1      12.439  -4.509  -0.090  1.00  0.00    +0.000 C 
ATOM     11  C2*   A A   1      12.138  -5.381  -1.311  1.00  0.00    +0.000 C 
ATOM     12  C3*   A A   1      13.525  -5.895  -1.658  1.00  0.00    +0.000 C 
ATOM     13  C4*   A A   1      14.436  -4.720  -1.307  1.00  0.00    +0.000 C 
ATOM     14  O4*   A A   1      13.774  -3.972  -0.260  1.00  0.00    +0.000 OA
BRANCH  12  15
ATOM     15  O3*   A A   1      13.798  -7.017  -0.792  1.00  0.00    +0.000 OA
ATOM     16  H3*   A A   1      14.717  -6.930  -0.482  1.00  0.00    +0.000 HD
ENDBRANCH  12  15
BRANCH  11  17
ATOM     17  O2*   A A   1      11.248  -6.464  -1.041  1.00  0.00    +0.000 OA
ATOM     18  H2*   A A   1      10.370  -6.167  -1.358  1.00  0.00    +0.000 HD
ENDBRANCH  11  17
BRANCH  13  19
ATOM     19  C5*   A A   1      14.719  -3.781  -2.485  1.00  0.00    +0.000 C 
BRANCH  19  20
ATOM     20  O5*   A A   1      14.573  -4.455  -3.730  1.00  0.00    +0.000 OA
ATOM     21  H5*   A A   1      13.974  -3.919  -4.281  1.00  0.00    +0.000 HD
ENDBRANCH  19  20
ENDBRANCH  13  19
ENDBRANCH   7  10
BRANCH   3  22
ATOM     22  N6    A A   1       7.692  -0.816   0.558  1.00  0.00    +0.000 N 
ATOM     23  H61   A A   1       7.907  -0.363   1.436  1.00  0.00    +0.000 HD
ATOM     24  H62   A A   1       6.721  -0.832   0.263  1.00  0.00    +0.000 HD
ENDBRANCH   3  22
TORSDOF 6
ENDMDL
MODEL 4
REMARK VINA RESULT:    -5.685      1.390      2.406
REMARK INTER + INTRA:          -7.187
REMARK INTER:                  -7.295
REMARK INTRA:                   0.108
REMARK UNBOUND:                -0.172
REMARK  Name = 
REMARK  6 active torsions:
REMARK  status: ('A' for Active; 'I' for Inactive)
REMARK    1  A    between atoms: C6_3  and  N6_19
REMARK    2  A    between atoms: N9_7  and  C1*_10
REMARK    3  A    between atoms: C2*_11  and  O2*_18
REMARK    4  A    between atoms: C3*_12  and  O3*_17
REMARK    5  A    between atoms: C4*_13  and  C5*_15
REMARK    6  A    between atoms: C5*_15  and  O5*_16
REMARK                            x       y       z     vdW  Elec       q    Type
REMARK                         _______ _______ _______ _____ _____    ______ ____
ROOT
ATOM      1  C2    A A   1      11.946  -6.606  -0.846  1.00  0.00    +0.000 A 
ATOM      2  N1    A A   1      13.297  -6.549  -0.886  1.00  0.00    +0.000 NA
ATOM      3  C6    A A   1      13.891  -5.344  -0.732  1.00  0.00    +0.000 A 
ATOM      4  C5    A A   1      13.080  -4.218  -0.508  1.00  0.00    +0.000 A 
ATOM      5  C4    A A   1      11.711  -4.432  -0.484  1.00  0.00    +0.000 A 
ATOM      6  N3    A A   1      11.069  -5.600  -0.654  1.00  0.00    +0.000 NA
ATOM      7  N9    A A   1      11.167  -3.201  -0.242  1.00  0.00    +0.000 N 
ATOM      8  C8    A A   1      12.203  -2.308  -0.137  1.00  0.00    +0.000 A 
ATOM      9  N7    A A   1      13.376  -2.889  -0.283  1.00  0.00    +0.000 NA
ENDROOT
BRANCH   7  10
ATOM     10  C1*   A A   1       9.755  -2.916  -0.095  1.00  0.00    +0.000 C 
ATOM     11  C2*   A A   1       8.997  -3.986   0.692  1.00  0.00    +0.000 C 
ATOM     12  C3*   A A   1       7.870  -3.166   1.299  1.00  0.00    +0.000 C 
ATOM     13  C4*   A A   1       8.526  -1.814   1.574  1.00  0.00    +0.000 C 
ATOM     14  O4*   A A   1       9.599  -1.663   0.615  1.00  0.00    +0.000 OA
BRANCH  12  15
ATOM     15  O3*   A A   1       6.845  -3.030   0.291  1.00  0.00    +0.000 OA
ATOM     16  H3*   A A   1       6.957  -2.156  -0.124  1.00  0.00    +0.000 HD
ENDBRANCH  12  15
BRANCH  11  17
ATOM     17  O2*   A A   1       8.476  -5.040  -0.119  1.00  0.00    +0.000 OA
ATOM     18  H2*   A A   1       8.240  -5.757   0.505  1.00  0.00    +0.000 HD
ENDBRANCH  11  17
BRANCH  13  19
ATOM     19  C5*   A A   1       9.102  -1.681   2.988  1.00  0.00    +0.000 C 
BRANCH  19  20
ATOM     20  O5*   A A   1       8.538  -0.568   3.673  1.00  0.00    +0.000 OA
ATOM     21  H5*   A A   1       9.276  -0.068   4.069  1.00  0.00    +0.000 HD
ENDBRANCH  19  20
ENDBRANCH  13  19
ENDBRANCH   7  10
BRANCH   3  22
ATOM     22  N6    A A   1      15.279  -5.285  -0.774  1.00  0.00    +0.000 N 
ATOM     23  H61   A A   1      15.602  -4.460  -1.262  1.00  0.00    +0.000 HD
ATOM     24  H62   A A   1      15.701  -6.174  -1.024  1.00  0.00    +0.000 HD
ENDBRANCH   3  22
TORSDOF 6
ENDMDL
MODEL 5
REMARK VINA RESULT:    -5.532      4.238      5.987
REMARK INTER + INTRA:          -6.997
REMARK INTER:                  -6.520
REMARK INTRA:                  -0.477
REMARK UNBOUND:                -0.172
REMARK  Name = 
REMARK  6 active torsions:
REMARK  status: ('A' for Active; 'I' for Inactive)
REMARK    1  A    between atoms: C6_3  and  N6_19
REMARK    2  A    between atoms: N9_7  and  C1*_10
REMARK    3  A    between atoms: C2*_11  and  O2*_18
REMARK    4  A    between atoms: C3*_12  and  O3*_17
REMARK    5  A    between atoms: C4*_13  and  C5*_15
REMARK    6  A    between atoms: C5*_15  and  O5*_16
REMARK                            x       y       z     vdW  Elec       q    Type
REMARK                         _______ _______ _______ _____ _____    ______ ____
ROOT
ATOM      1  C2    A A   1      12.809  -9.123  -3.891  1.00  0.00    +0.000 A 
ATOM      2  N1    A A   1      13.017  -9.090  -5.227  1.00  0.00    +0.000 NA
ATOM      3  C6    A A   1      13.655  -8.018  -5.748  1.00  0.00    +0.000 A 
ATOM      4  C5    A A   1      14.096  -7.007  -4.876  1.00  0.00    +0.000 A 
ATOM      5  C4    A A   1      13.817  -7.183  -3.530  1.00  0.00    +0.000 A 
ATOM      6  N3    A A   1      13.169  -8.214  -2.963  1.00  0.00    +0.000 NA
ATOM      7  N9    A A   1      14.354  -6.086  -2.914  1.00  0.00    +0.000 N 
ATOM      8  C8    A A   1      14.918  -5.303  -3.888  1.00  0.00    +0.000 A 
ATOM      9  N7    A A   1      14.790  -5.834  -5.087  1.00  0.00    +0.000 NA
ENDROOT
BRANCH   7  10
ATOM     10  C1*   A A   1      14.346  -5.829  -1.489  1.00  0.00    +0.000 C 
ATOM     11  C2*   A A   1      15.367  -4.776  -1.055  1.00  0.00    +0.000 C 
ATOM     12  C3*   A A   1      14.693  -4.201   0.180  1.00  0.00    +0.000 C 
ATOM     13  C4*   A A   1      13.208  -4.257  -0.169  1.00  0.00    +0.000 C 
ATOM     14  O4*   A A   1      13.036  -5.347  -1.105  1.00  0.00    +0.000 OA
BRANCH  12  15
ATOM     15  O3*   A A   1      14.983  -5.089   1.282  1.00  0.00    +0.000 OA
ATOM     16  H3*   A A   1      14.242  -5.026   1.911  1.00  0.00    +0.000 HD
ENDBRANCH  12  15
BRANCH  11  17
ATOM     17  O2*   A A   1      16.650  -5.314  -0.729  1.00  0.00    +0.000 OA
ATOM     18  H2*   A A   1      16.494  -6.260  -0.531  1.00  0.00    +0.000 HD
ENDBRANCH  11  17
BRANCH  13  19
ATOM     19  C5*   A A   1      12.671  -2.969  -0.803  1.00  0.00    +0.000 C 
BRANCH  19  20
ATOM     20  O5*   A A   1      12.263  -3.187  -2.149  1.00  0.00    +0.000 OA
ATOM     21  H5*   A A   1      12.256  -4.151  -2.297  1.00  0.00    +0.000 HD
ENDBRANCH  19  20
ENDBRANCH  13  19
ENDBRANCH   7  10
BRANCH   3  22
ATOM     22  N6    A A   1      13.868  -7.983  -7.122  1.00  0.00    +0.000 N 
ATOM     23  H61   A A   1      14.844  -7.834  -7.343  1.00  0.00    +0.000 HD
ATOM     24  H62   A A   1      13.183  -7.415  -7.610  1.00  0.00    +0.000 HD
ENDBRANCH   3  22
TORSDOF 6
ENDMDL
MODEL 6
REMARK VINA RESULT:    -5.487      4.311      5.939
REMARK INTER + INTRA:          -6.942
REMARK INTER:                  -6.605
REMARK INTRA:                  -0.337
REMARK UNBOUND:                -0.172
REMARK  Name = 
REMARK  6 active torsions:
REMARK  status: ('A' for Active; 'I' for Inactive)
REMARK    1  A    between atoms: C6_3  and  N6_19
REMARK    2  A    between atoms: N9_7  and  C1*_10
REMARK    3  A    between atoms: C2*_11  and  O2*_18
REMARK    4  A    between atoms: C3*_12  and  O3*_17
REMARK    5  A    between atoms: C4*_13  and  C5*_15
REMARK    6  A    between atoms: C5*_15  and  O5*_16
REMARK                            x       y       z     vdW  Elec       q    Type
REMARK                         _______ _______ _______ _____ _____    ______ ____
ROOT
ATOM      1  C2    A A   1      14.961  -5.437  -4.757  1.00  0.00    +0.000 A 
ATOM      2  N1    A A   1      14.670  -6.293  -5.762  1.00  0.00    +0.000 NA
ATOM      3  C6    A A   1      13.997  -7.427  -5.462  1.00  0.00    +0.000 A 
ATOM      4  C5    A A   1      13.607  -7.644  -4.129  1.00  0.00    +0.000 A 
ATOM      5  C4    A A   1      13.969  -6.674  -3.210  1.00  0.00    +0.000 A 
ATOM      6  N3    A A   1      14.655  -5.544  -3.449  1.00  0.00    +0.000 NA
ATOM      7  N9    A A   1      13.466  -7.116  -2.017  1.00  0.00    +0.000 N 
ATOM      8  C8    A A   1      12.840  -8.312  -2.254  1.00  0.00    +0.000 A 
ATOM      9  N7    A A   1      12.896  -8.659  -3.523  1.00  0.00    +0.000 NA
ENDROOT
BRANCH   7  10
ATOM     10  C1*   A A   1      13.561  -6.420  -0.751  1.00  0.00    +0.000 C 
ATOM     11  C2*   A A   1      14.900  -5.709  -0.546  1.00  0.00    +0.000 C 
ATOM     12  C3*   A A   1      14.491  -4.564   0.366  1.00  0.00    +0.000 C 
ATOM     13  C4*   A A   1      13.087  -4.209  -0.118  1.00  0.00    +0.000 C 
ATOM     14  O4*   A A   1      12.521  -5.414  -0.687  1.00  0.00    +0.000 OA
BRANCH  12  15
ATOM     15  O3*   A A   1      14.441  -5.083   1.713  1.00  0.00    +0.000 OA
ATOM     16  H3*   A A   1      14.344  -6.050   1.650  1.00  0.00    +0.000 HD
ENDBRANCH  12  15
BRANCH  11  17
ATOM     17  O2*   A A   1      15.897  -6.521   0.075  1.00  0.00    +0.000 OA
ATOM     18  H2*   A A   1      16.694  -5.955   0.137  1.00  0.00    +0.000 HD
ENDBRANCH  11  17
BRANCH  13  19
ATOM     19  C5*   A A   1      13.057  -3.100  -1.175  1.00  0.00    +0.000 C 
BRANCH  19  20
ATOM     20  O5*   A A   1      12.421  -3.541  -2.369  1.00  0.00    +0.000 OA
ATOM     21  H5*   A A   1      11.543  -3.119  -2.403  1.00  0.00    +0.000 HD
ENDBRANCH  19  20
ENDBRANCH  13  19
ENDBRANCH   7  10
BRANCH   3  22
ATOM     22  N6    A A   1      13.699  -8.308  -6.496  1.00  0.00    +0.000 N 
ATOM     23  H61   A A   1      13.179  -7.853  -7.234  1.00  0.00    +0.000 HD
ATOM     24  H62   A A   1      13.356  -9.202  -6.161  1.00  0.00    +0.000 HD
ENDBRANCH   3  22
TORSDOF 6
ENDMDL
MODEL 7
REMARK VINA RESULT:    -5.413      4.007      6.611
REMARK INTER + INTRA:          -6.850
REMARK INTER:                  -6.434
REMARK INTRA:                  -0.416
REMARK UNBOUND:                -0.172
REMARK  Name = 
REMARK  6 active torsions:
REMARK  status: ('A' for Active; 'I' for Inactive)
REMARK    1  A    between atoms: C6_3  and  N6_19
REMARK    2  A    between atoms: N9_7  and  C1*_10
REMARK    3  A    between atoms: C2*_11  and  O2*_18
REMARK    4  A    between atoms: C3*_12  and  O3*_17
REMARK    5  A    between atoms: C4*_13  and  C5*_15
REMARK    6  A    between atoms: C5*_15  and  O5*_16
REMARK                            x       y       z     vdW  Elec       q    Type
REMARK                         _______ _______ _______ _____ _____    ______ ____
ROOT
ATOM      1  C2    A A   1      11.373  -1.372   0.263  1.00  0.00    +0.000 A 
ATOM      2  N1    A A   1      10.115  -1.863   0.347  1.00  0.00    +0.000 NA
ATOM      3  C6    A A   1       9.922  -3.174   0.077  1.00  0.00    +0.000 A 
ATOM      4  C5    A A   1      11.037  -3.966  -0.247  1.00  0.00    +0.000 A 
ATOM      5  C4    A A   1      12.264  -3.325  -0.286  1.00  0.00    +0.000 A 
ATOM      6  N3    A A   1      12.509  -2.025  -0.050  1.00  0.00    +0.000 NA
ATOM      7  N9    A A   1      13.162  -4.306  -0.606  1.00  0.00    +0.000 N 
ATOM      8  C8    A A   1      12.460  -5.474  -0.752  1.00  0.00    +0.000 A 
ATOM      9  N7    A A   1      11.171  -5.309  -0.532  1.00  0.00    +0.000 NA
ENDROOT
BRANCH   7  10
ATOM     10  C1*   A A   1      14.594  -4.131  -0.734  1.00  0.00    +0.000 C 
ATOM     11  C2*   A A   1      15.395  -5.385  -0.378  1.00  0.00    +0.000 C 
ATOM     12  C3*   A A   1      16.632  -5.202  -1.242  1.00  0.00    +0.000 C 
ATOM     13  C4*   A A   1      16.088  -4.529  -2.501  1.00  0.00    +0.000 C 
ATOM     14  O4*   A A   1      14.906  -3.793  -2.107  1.00  0.00    +0.000 OA
BRANCH  12  15
ATOM     15  O3*   A A   1      17.520  -4.307  -0.539  1.00  0.00    +0.000 OA
ATOM     16  H3*   A A   1      17.423  -3.424  -0.940  1.00  0.00    +0.000 HD
ENDBRANCH  12  15
BRANCH  11  17
ATOM     17  O2*   A A   1      15.749  -5.472   1.003  1.00  0.00    +0.000 OA
ATOM     18  H2*   A A   1      15.176  -6.174   1.376  1.00  0.00    +0.000 HD
ENDBRANCH  11  17
BRANCH  13  19
ATOM     19  C5*   A A   1      15.711  -5.512  -3.616  1.00  0.00    +0.000 C 
BRANCH  19  20
ATOM     20  O5*   A A   1      14.969  -4.866  -4.644  1.00  0.00    +0.000 OA
ATOM     21  H5*   A A   1      15.594  -4.311  -5.147  1.00  0.00    +0.000 HD
ENDBRANCH  19  20
ENDBRANCH  13  19
ENDBRANCH   7  10
BRANCH   3  22
ATOM     22  N6    A A   1       8.629  -3.679   0.162  1.00  0.00    +0.000 N 
ATOM     23  H61   A A   1       8.042  -3.328  -0.584  1.00  0.00    +0.000 HD
ATOM     24  H62   A A   1       8.258  -3.648   1.106  1.00  0.00    +0.000 HD
ENDBRANCH   3  22
TORSDOF 6
ENDMDL
MODEL 8
REMARK VINA RESULT:    -5.236      3.193      5.496
REMARK INTER + INTRA:          -6.631
REMARK INTER:                  -6.800
REMARK INTRA:                   0.168
REMARK UNBOUND:                -0.172
REMARK  Name = 
REMARK  6 active torsions:
REMARK  status: ('A' for Active; 'I' for Inactive)
REMARK    1  A    between atoms: C6_3  and  N6_19
REMARK    2  A    between atoms: N9_7  and  C1*_10
REMARK    3  A    between atoms: C2*_11  and  O2*_18
REMARK    4  A    between atoms: C3*_12  and  O3*_17
REMARK    5  A    between atoms: C4*_13  and  C5*_15
REMARK    6  A    between atoms: C5*_15  and  O5*_16
REMARK                            x       y       z     vdW  Elec       q    Type
REMARK                         _______ _______ _______ _____ _____    ______ ____
ROOT
ATOM      1  C2    A A   1       8.606  -4.388   0.266  1.00  0.00    +0.000 A 
ATOM      2  N1    A A   1       7.993  -3.252   0.668  1.00  0.00    +0.000 NA
ATOM      3  C6    A A   1       8.736  -2.125   0.765  1.00  0.00    +0.000 A 
ATOM      4  C5    A A   1      10.096  -2.184   0.415  1.00  0.00    +0.000 A 
ATOM      5  C4    A A   1      10.581  -3.417   0.013  1.00  0.00    +0.000 A 
ATOM      6  N3    A A   1       9.896  -4.569  -0.079  1.00  0.00    +0.000 NA
ATOM      7  N9    A A   1      11.900  -3.198  -0.277  1.00  0.00    +0.000 N 
ATOM      8  C8    A A   1      12.158  -1.873  -0.037  1.00  0.00    +0.000 A 
ATOM      9  N7    A A   1      11.087  -1.225   0.373  1.00  0.00    +0.000 NA
ENDROOT
BRANCH   7  10
ATOM     10  C1*   A A   1      12.832  -4.189  -0.772  1.00  0.00    +0.000 C 
ATOM     11  C2*   A A   1      13.458  -5.042   0.333  1.00  0.00    +0.000 C 
ATOM     12  C3*   A A   1      13.738  -6.336  -0.414  1.00  0.00    +0.000 C 
ATOM     13  C4*   A A   1      12.572  -6.437  -1.395  1.00  0.00    +0.000 C 
ATOM     14  O4*   A A   1      12.133  -5.086  -1.669  1.00  0.00    +0.000 OA
BRANCH  12  15
ATOM     15  O3*   A A   1      14.980  -6.161  -1.129  1.00  0.00    +0.000 OA
ATOM     16  H3*   A A   1      14.862  -6.541  -2.018  1.00  0.00    +0.000 HD
ENDBRANCH  12  15
BRANCH  11  17
ATOM     17  O2*   A A   1      14.663  -4.497   0.871  1.00  0.00    +0.000 OA
ATOM     18  H2*   A A   1      14.402  -4.063   1.710  1.00  0.00    +0.000 HD
ENDBRANCH  11  17
BRANCH  13  19
ATOM     19  C5*   A A   1      11.383  -7.247  -0.864  1.00  0.00    +0.000 C 
BRANCH  19  20
ATOM     20  O5*   A A   1      11.816  -8.446  -0.232  1.00  0.00    +0.000 OA
ATOM     21  H5*   A A   1      11.402  -8.474   0.650  1.00  0.00    +0.000 HD
ENDBRANCH  19  20
ENDBRANCH  13  19
ENDBRANCH   7  10
BRANCH   3  22
ATOM     22  N6    A A   1       8.106  -0.957   1.180  1.00  0.00    +0.000 N 
ATOM     23  H61   A A   1       8.424  -0.668   2.096  1.00  0.00    +0.000 HD
ATOM     24  H62   A A   1       7.105  -0.971   1.012  1.00  0.00    +0.000 HD
ENDBRANCH   3  22
TORSDOF 6
ENDMDL
MODEL 9
REMARK VINA RESULT:    -5.224      4.701      7.070
REMARK INTER + INTRA:          -6.617
REMARK INTER:                  -6.245
REMARK INTRA:                  -0.372
REMARK UNBOUND:                -0.172
REMARK  Name = 
REMARK  6 active torsions:
REMARK  status: ('A' for Active; 'I' for Inactive)
REMARK    1  A    between atoms: C6_3  and  N6_19
REMARK    2  A    between atoms: N9_7  and  C1*_10
REMARK    3  A    between atoms: C2*_11  and  O2*_18
REMARK    4  A    between atoms: C3*_12  and  O3*_17
REMARK    5  A    between atoms: C4*_13  and  C5*_15
REMARK    6  A    between atoms: C5*_15  and  O5*_16
REMARK                            x       y       z     vdW  Elec       q    Type
REMARK                         _______ _______ _______ _____ _____    ______ ____
ROOT
ATOM      1  C2    A A   1      13.045  -9.604  -5.285  1.00  0.00    +0.000 A 
ATOM      2  N1    A A   1      13.182 -10.845  -4.766  1.00  0.00    +0.000 NA
ATOM      3  C6    A A   1      13.426 -10.962  -3.441  1.00  0.00    +0.000 A 
ATOM      4  C5    A A   1      13.495  -9.792  -2.665  1.00  0.00    +0.000 A 
ATOM      5  C4    A A   1      13.328  -8.591  -3.334  1.00  0.00    +0.000 A 
ATOM      6  N3    A A   1      13.106  -8.417  -4.648  1.00  0.00    +0.000 NA
ATOM      7  N9    A A   1      13.427  -7.632  -2.364  1.00  0.00    +0.000 N 
ATOM      8  C8    A A   1      13.652  -8.274  -1.174  1.00  0.00    +0.000 A 
ATOM      9  N7    A A   1      13.691  -9.583  -1.315  1.00  0.00    +0.000 NA
ENDROOT
BRANCH   7  10
ATOM     10  C1*   A A   1      13.286  -6.205  -2.570  1.00  0.00    +0.000 C 
ATOM     11  C2*   A A   1      13.074  -5.422  -1.273  1.00  0.00    +0.000 C 
ATOM     12  C3*   A A   1      13.674  -4.074  -1.639  1.00  0.00    +0.000 C 
ATOM     13  C4*   A A   1      14.837  -4.442  -2.558  1.00  0.00    +0.000 C 
ATOM     14  O4*   A A   1      14.492  -5.698  -3.190  1.00  0.00    +0.000 OA
BRANCH  12  15
ATOM     15  O3*   A A   1      12.669  -3.340  -2.372  1.00  0.00    +0.000 OA
ATOM     16  H3*   A A   1      13.099  -2.964  -3.161  1.00  0.00    +0.000 HD
ENDBRANCH  12  15
BRANCH  11  17
ATOM     17  O2*   A A   1      11.702  -5.282  -0.900  1.00  0.00    +0.000 OA
ATOM     18  H2*   A A   1      11.299  -6.162  -1.051  1.00  0.00    +0.000 HD
ENDBRANCH  11  17
BRANCH  13  19
ATOM     19  C5*   A A   1      16.176  -4.605  -1.830  1.00  0.00    +0.000 C 
BRANCH  19  20
ATOM     20  O5*   A A   1      17.245  -4.043  -2.583  1.00  0.00    +0.000 OA
ATOM     21  H5*   A A   1      16.909  -3.875  -3.482  1.00  0.00    +0.000 HD
ENDBRANCH  19  20
ENDBRANCH  13  19
ENDBRANCH   7  10
BRANCH   3  22
ATOM     22  N6    A A   1      13.567 -12.238  -2.908  1.00  0.00    +0.000 N 
ATOM     23  H61   A A   1      14.140 -12.232  -2.075  1.00  0.00    +0.000 HD
ATOM     24  H62   A A   1      13.774 -12.937  -3.615  1.00  0.00    +0.000 HD
ENDBRANCH   3  22
TORSDOF 6
ENDMDL
