REMARK  Name = 
REMARK  6 active torsions:
REMARK  status: ('A' for Active; 'I' for Inactive)
REMARK    1  A    between atoms: C6_3  and  N6_19
REMARK    2  A    between atoms: N9_7  and  C1*_10
REMARK    3  A    between atoms: C2*_11  and  O2*_18
REMARK    4  A    between atoms: C3*_12  and  O3*_17
REMARK    5  A    between atoms: C4*_13  and  C5*_15
REMARK    6  A    between atoms: C5*_15  and  O5*_16
REMARK                            x       y       z     vdW  Elec       q    Type
REMARK                         _______ _______ _______ _____ _____    ______ ____
ROOT
ATOM      1  C2    A A   1       3.523  -1.531  -1.535  1.00  0.00    +0.000 A 
ATOM      2  N1    A A   1       2.696  -2.593  -1.404  1.00  0.00    +0.000 NA
ATOM      3  C6    A A   1       1.485  -2.394  -0.836  1.00  0.00    +0.000 A 
ATOM      4  C5    A A   1       1.134  -1.092  -0.439  1.00  0.00    +0.000 A 
ATOM      5  C4    A A   1       2.082  -0.103  -0.644  1.00  0.00    +0.000 A 
ATOM      6  N3    A A   1       3.305  -0.249  -1.181  1.00  0.00    +0.000 NA
ATOM      7  N9    A A   1       1.494   1.046  -0.191  1.00  0.00    +0.000 N 
ATOM      8  C8    A A   1       0.245   0.715   0.267  1.00  0.00    +0.000 A 
ATOM      9  N7    A A   1      -0.012  -0.569   0.124  1.00  0.00    +0.000 NA
ENDROOT
BRANCH   7  10
ATOM     10  C1*   A A   1       2.086   2.367  -0.224  1.00  0.00    +0.000 C 
ATOM     11  C2*   A A   1       1.629   3.209  -1.417  1.00  0.00    +0.000 C 
ATOM     12  C3*   A A   1       1.755   4.615  -0.853  1.00  0.00    +0.000 C 
ATOM     13  C4*   A A   1       1.379   4.442   0.617  1.00  0.00    +0.000 C 
ATOM     14  O4*   A A   1       1.712   3.081   0.979  1.00  0.00    +0.000 OA
BRANCH  12  15
ATOM     15  O3*   A A   1       3.140   5.005  -0.974  1.00  0.00    +0.000 OA
ATOM     16  H3*   A A   1       3.216   5.919  -0.646  1.00  0.00    +0.000 HD
ENDBRANCH  12  15
BRANCH  11  17
ATOM     17  O2*   A A   1       2.443   3.054  -2.580  1.00  0.00    +0.000 OA
ATOM     18  H2*   A A   1       3.248   3.585  -2.408  1.00  0.00    +0.000 HD
ENDBRANCH  11  17
BRANCH  13  19
ATOM     19  C5*   A A   1      -0.106   4.684   0.910  1.00  0.00    +0.000 C 
BRANCH  19  20
ATOM     20  O5*   A A   1      -0.935   3.984  -0.011  1.00  0.00    +0.000 OA
ATOM     21  H5*   A A   1      -1.857   4.099   0.284  1.00  0.00    +0.000 HD
ENDBRANCH  19  20
ENDBRANCH  13  19
ENDBRANCH   7  10
BRANCH   3  22
ATOM     22  N6    A A   1       0.635  -3.486  -0.700  1.00  0.00    +0.000 N 
ATOM     23  H61   A A   1       0.859  -4.217  -1.362  1.00  0.00    +0.000 HD
ATOM     24  H62   A A   1      -0.339  -3.215  -0.611  1.00  0.00    +0.000 HD
ENDBRANCH   3  22
TORSDOF 6
