MODEL 1
REMARK VINA RESULT:    -6.274      0.000      0.000
REMARK INTER + INTRA:          -7.977
REMARK INTER:                  -7.741
REMARK INTRA:                  -0.236
REMARK UNBOUND:                -0.236
REMARK  Name = 
REMARK  6 active torsions:
REMARK  status: ('A' for Active; 'I' for Inactive)
REMARK    1  A    between atoms: C6_3  and  N6_19
REMARK    2  A    between atoms: N9_7  and  C1*_10
REMARK    3  A    between atoms: C2*_11  and  O2*_18
REMARK    4  A    between atoms: C3*_12  and  O3*_17
REMARK    5  A    between atoms: C4*_13  and  C5*_15
REMARK    6  A    between atoms: C5*_15  and  O5*_16
REMARK                            x       y       z     vdW  Elec       q    Type
REMARK                         _______ _______ _______ _____ _____    ______ ____
ROOT
ATOM      1  C2    A A   1      10.111   1.112  25.820  1.00  0.00    +0.000 A 
ATOM      2  N1    A A   1       9.085   0.369  26.293  1.00  0.00    +0.000 NA
ATOM      3  C6    A A   1       8.976  -0.912  25.872  1.00  0.00    +0.000 A 
ATOM      4  C5    A A   1       9.948  -1.415  24.990  1.00  0.00    +0.000 A 
ATOM      5  C4    A A   1      10.946  -0.537  24.599  1.00  0.00    +0.000 A 
ATOM      6  N3    A A   1      11.088   0.747  24.967  1.00  0.00    +0.000 NA
ATOM      7  N9    A A   1      11.751  -1.269  23.769  1.00  0.00    +0.000 N 
ATOM      8  C8    A A   1      11.218  -2.529  23.687  1.00  0.00    +0.000 A 
ATOM      9  N7    A A   1      10.132  -2.658  24.421  1.00  0.00    +0.000 NA
ENDROOT
BRANCH   7  10
ATOM     10  C1*   A A   1      12.958  -0.791  23.127  1.00  0.00    +0.000 C 
ATOM     11  C2*   A A   1      13.602  -1.822  22.198  1.00  0.00    +0.000 C 
ATOM     12  C3*   A A   1      14.293  -0.921  21.188  1.00  0.00    +0.000 C 
ATOM     13  C4*   A A   1      13.345   0.270  21.069  1.00  0.00    +0.000 C 
ATOM     14  O4*   A A   1      12.637   0.372  22.327  1.00  0.00    +0.000 OA
BRANCH  12  15
ATOM     15  O3*   A A   1      15.548  -0.506  21.770  1.00  0.00    +0.000 OA
ATOM     16  H3*   A A   1      16.154  -0.294  21.038  1.00  0.00    +0.000 HD
ENDBRANCH  12  15
BRANCH  11  17
ATOM     17  O2*   A A   1      14.545  -2.676  22.846  1.00  0.00    +0.000 OA
ATOM     18  H2*   A A   1      15.318  -2.107  23.046  1.00  0.00    +0.000 HD
ENDBRANCH  11  17
BRANCH  13  19
ATOM     19  C5*   A A   1      12.322   0.137  19.934  1.00  0.00    +0.000 C 
BRANCH  19  20
ATOM     20  O5*   A A   1      12.792  -0.739  18.916  1.00  0.00    +0.000 OA
ATOM     21  H5*   A A   1      12.466  -1.633  19.131  1.00  0.00    +0.000 HD
ENDBRANCH  19  20
ENDBRANCH  13  19
ENDBRANCH   7  10
BRANCH   3  22
ATOM     22  N6    A A   1       7.920  -1.676  26.357  1.00  0.00    +0.000 N 
ATOM     23  H61   A A   1       7.424  -1.198  27.097  1.00  0.00    +0.000 HD
ATOM     24  H62   A A   1       8.178  -2.645  26.514  1.00  0.00    +0.000 HD
ENDBRANCH   3  22
TORSDOF 6
ENDMDL
MODEL 2
REMARK VINA RESULT:    -5.763      3.056      5.751
REMARK INTER + INTRA:          -7.346
REMARK INTER:                  -7.105
REMARK INTRA:                  -0.241
REMARK UNBOUND:                -0.236
REMARK  Name = 
REMARK  6 active torsions:
REMARK  status: ('A' for Active; 'I' for Inactive)
REMARK    1  A    between atoms: C6_3  and  N6_19
REMARK    2  A    between atoms: N9_7  and  C1*_10
REMARK    3  A    between atoms: C2*_11  and  O2*_18
REMARK    4  A    between atoms: C3*_12  and  O3*_17
REMARK    5  A    between atoms: C4*_13  and  C5*_15
REMARK    6  A    between atoms: C5*_15  and  O5*_16
REMARK                            x       y       z     vdW  Elec       q    Type
REMARK                         _______ _______ _______ _____ _____    ______ ____
ROOT
ATOM      1  C2    A A   1      13.137   0.793  21.759  1.00  0.00    +0.000 A 
ATOM      2  N1    A A   1      13.462  -0.047  20.749  1.00  0.00    +0.000 NA
ATOM      3  C6    A A   1      13.213  -1.366  20.910  1.00  0.00    +0.000 A 
ATOM      4  C5    A A   1      12.601  -1.795  22.101  1.00  0.00    +0.000 A 
ATOM      5  C4    A A   1      12.319  -0.818  23.041  1.00  0.00    +0.000 A 
ATOM      6  N3    A A   1      12.565   0.499  22.943  1.00  0.00    +0.000 NA
ATOM      7  N9    A A   1      11.728  -1.488  24.077  1.00  0.00    +0.000 N 
ATOM      8  C8    A A   1      11.684  -2.815  23.735  1.00  0.00    +0.000 A 
ATOM      9  N7    A A   1      12.194  -3.038  22.541  1.00  0.00    +0.000 NA
ENDROOT
BRANCH   7  10
ATOM     10  C1*   A A   1      11.222  -0.887  25.293  1.00  0.00    +0.000 C 
ATOM     11  C2*   A A   1      10.267   0.282  25.041  1.00  0.00    +0.000 C 
ATOM     12  C3*   A A   1       9.388   0.220  26.280  1.00  0.00    +0.000 C 
ATOM     13  C4*   A A   1       9.289  -1.277  26.568  1.00  0.00    +0.000 C 
ATOM     14  O4*   A A   1      10.493  -1.887  26.045  1.00  0.00    +0.000 OA
BRANCH  12  15
ATOM     15  O3*   A A   1      10.097   0.890  27.344  1.00  0.00    +0.000 OA
ATOM     16  H3*   A A   1       9.549   0.824  28.147  1.00  0.00    +0.000 HD
ENDBRANCH  12  15
BRANCH  11  17
ATOM     17  O2*   A A   1      10.918   1.550  24.944  1.00  0.00    +0.000 OA
ATOM     18  H2*   A A   1      11.839   1.351  24.677  1.00  0.00    +0.000 HD
ENDBRANCH  11  17
BRANCH  13  19
ATOM     19  C5*   A A   1       8.072  -1.953  25.928  1.00  0.00    +0.000 C 
BRANCH  19  20
ATOM     20  O5*   A A   1       6.867  -1.278  26.269  1.00  0.00    +0.000 OA
ATOM     21  H5*   A A   1       6.131  -1.785  25.880  1.00  0.00    +0.000 HD
ENDBRANCH  19  20
ENDBRANCH  13  19
ENDBRANCH   7  10
BRANCH   3  22
ATOM     22  N6    A A   1      13.548  -2.229  19.873  1.00  0.00    +0.000 N 
ATOM     23  H61   A A   1      14.469  -2.029  19.504  1.00  0.00    +0.000 HD
ATOM     24  H62   A A   1      12.793  -2.354  19.207  1.00  0.00    +0.000 HD
ENDBRANCH   3  22
TORSDOF 6
ENDMDL
MODEL 3
REMARK VINA RESULT:    -5.759      3.259      5.665
REMARK INTER + INTRA:          -7.341
REMARK INTER:                  -6.914
REMARK INTRA:                  -0.427
REMARK UNBOUND:                -0.236
REMARK  Name = 
REMARK  6 active torsions:
REMARK  status: ('A' for Active; 'I' for Inactive)
REMARK    1  A    between atoms: C6_3  and  N6_19
REMARK    2  A    between atoms: N9_7  and  C1*_10
REMARK    3  A    between atoms: C2*_11  and  O2*_18
REMARK    4  A    between atoms: C3*_12  and  O3*_17
REMARK    5  A    between atoms: C4*_13  and  C5*_15
REMARK    6  A    between atoms: C5*_15  and  O5*_16
REMARK                            x       y       z     vdW  Elec       q    Type
REMARK                         _______ _______ _______ _____ _____    ______ ____
ROOT
ATOM      1  C2    A A   1      12.672   2.863  20.618  1.00  0.00    +0.000 A 
ATOM      2  N1    A A   1      12.678   2.830  19.266  1.00  0.00    +0.000 NA
ATOM      3  C6    A A   1      12.719   1.624  18.656  1.00  0.00    +0.000 A 
ATOM      4  C5    A A   1      12.722   0.466  19.454  1.00  0.00    +0.000 A 
ATOM      5  C4    A A   1      12.706   0.657  20.826  1.00  0.00    +0.000 A 
ATOM      6  N3    A A   1      12.688   1.829  21.483  1.00  0.00    +0.000 NA
ATOM      7  N9    A A   1      12.701  -0.604  21.356  1.00  0.00    +0.000 N 
ATOM      8  C8    A A   1      12.721  -1.489  20.309  1.00  0.00    +0.000 A 
ATOM      9  N7    A A   1      12.725  -0.878  19.142  1.00  0.00    +0.000 NA
ENDROOT
BRANCH   7  10
ATOM     10  C1*   A A   1      12.652  -0.927  22.766  1.00  0.00    +0.000 C 
ATOM     11  C2*   A A   1      11.231  -1.139  23.294  1.00  0.00    +0.000 C 
ATOM     12  C3*   A A   1      11.481  -2.110  24.436  1.00  0.00    +0.000 C 
ATOM     13  C4*   A A   1      12.636  -2.969  23.925  1.00  0.00    +0.000 C 
ATOM     14  O4*   A A   1      13.387  -2.154  22.994  1.00  0.00    +0.000 OA
BRANCH  12  15
ATOM     15  O3*   A A   1      11.901  -1.332  25.578  1.00  0.00    +0.000 OA
ATOM     16  H3*   A A   1      12.865  -1.445  25.670  1.00  0.00    +0.000 HD
ENDBRANCH  12  15
BRANCH  11  17
ATOM     17  O2*   A A   1      10.607   0.054  23.769  1.00  0.00    +0.000 OA
ATOM     18  H2*   A A   1      10.121  -0.210  24.577  1.00  0.00    +0.000 HD
ENDBRANCH  11  17
BRANCH  13  19
ATOM     19  C5*   A A   1      12.188  -4.250  23.213  1.00  0.00    +0.000 C 
BRANCH  19  20
ATOM     20  O5*   A A   1      12.986  -5.363  23.601  1.00  0.00    +0.000 OA
ATOM     21  H5*   A A   1      12.789  -5.547  24.538  1.00  0.00    +0.000 HD
ENDBRANCH  19  20
ENDBRANCH  13  19
ENDBRANCH   7  10
BRANCH   3  22
ATOM     22  N6    A A   1      12.727   1.590  17.266  1.00  0.00    +0.000 N 
ATOM     23  H61   A A   1      12.771   0.641  16.917  1.00  0.00    +0.000 HD
ATOM     24  H62   A A   1      13.363   2.270  16.862  1.00  0.00    +0.000 HD
ENDBRANCH   3  22
TORSDOF 6
ENDMDL
MODEL 4
REMARK VINA RESULT:    -5.384      3.340      5.900
REMARK INTER + INTRA:          -6.879
REMARK INTER:                  -6.428
REMARK INTRA:                  -0.450
REMARK UNBOUND:                -0.236
REMARK  Name = 
REMARK  6 active torsions:
REMARK  status: ('A' for Active; 'I' for Inactive)
REMARK    1  A    between atoms: C6_3  and  N6_19
REMARK    2  A    between atoms: N9_7  and  C1*_10
REMARK    3  A    between atoms: C2*_11  and  O2*_18
REMARK    4  A    between atoms: C3*_12  and  O3*_17
REMARK    5  A    between atoms: C4*_13  and  C5*_15
REMARK    6  A    between atoms: C5*_15  and  O5*_16
REMARK                            x       y       z     vdW  Elec       q    Type
REMARK                         _______ _______ _______ _____ _____    ______ ____
ROOT
ATOM      1  C2    A A   1      12.780   0.969  17.692  1.00  0.00    +0.000 A 
ATOM      2  N1    A A   1      12.799   2.321  17.649  1.00  0.00    +0.000 NA
ATOM      3  C6    A A   1      12.788   2.998  18.820  1.00  0.00    +0.000 A 
ATOM      4  C5    A A   1      12.786   2.265  20.020  1.00  0.00    +0.000 A 
ATOM      5  C4    A A   1      12.774   0.885  19.906  1.00  0.00    +0.000 A 
ATOM      6  N3    A A   1      12.762   0.164  18.772  1.00  0.00    +0.000 NA
ATOM      7  N9    A A   1      12.788   0.426  21.194  1.00  0.00    +0.000 N 
ATOM      8  C8    A A   1      12.800   1.520  22.020  1.00  0.00    +0.000 A 
ATOM      9  N7    A A   1      12.809   2.651  21.344  1.00  0.00    +0.000 NA
ENDROOT
BRANCH   7  10
ATOM     10  C1*   A A   1      12.814  -0.965  21.595  1.00  0.00    +0.000 C 
ATOM     11  C2*   A A   1      13.895  -1.280  22.631  1.00  0.00    +0.000 C 
ATOM     12  C3*   A A   1      13.270  -2.456  23.363  1.00  0.00    +0.000 C 
ATOM     13  C4*   A A   1      11.778  -2.129  23.351  1.00  0.00    +0.000 C 
ATOM     14  O4*   A A   1      11.537  -1.311  22.182  1.00  0.00    +0.000 OA
BRANCH  12  15
ATOM     15  O3*   A A   1      13.530  -3.640  22.578  1.00  0.00    +0.000 OA
ATOM     16  H3*   A A   1      14.418  -3.542  22.188  1.00  0.00    +0.000 HD
ENDBRANCH  12  15
BRANCH  11  17
ATOM     17  O2*   A A   1      15.153  -1.646  22.062  1.00  0.00    +0.000 OA
ATOM     18  H2*   A A   1      15.348  -2.539  22.414  1.00  0.00    +0.000 HD
ENDBRANCH  11  17
BRANCH  13  19
ATOM     19  C5*   A A   1      11.299  -1.371  24.595  1.00  0.00    +0.000 C 
BRANCH  19  20
ATOM     20  O5*   A A   1      10.192  -0.531  24.292  1.00  0.00    +0.000 OA
ATOM     21  H5*   A A   1      10.300   0.289  24.810  1.00  0.00    +0.000 HD
ENDBRANCH  19  20
ENDBRANCH  13  19
ENDBRANCH   7  10
BRANCH   3  22
ATOM     22  N6    A A   1      12.807   4.387  18.777  1.00  0.00    +0.000 N 
ATOM     23  H61   A A   1      12.953   4.786  19.694  1.00  0.00    +0.000 HD
ATOM     24  H62   A A   1      12.057   4.772  18.211  1.00  0.00    +0.000 HD
ENDBRANCH   3  22
TORSDOF 6
ENDMDL
MODEL 5
REMARK VINA RESULT:    -5.116      4.045      5.876
REMARK INTER + INTRA:          -6.548
REMARK INTER:                  -6.212
REMARK INTRA:                  -0.337
REMARK UNBOUND:                -0.236
REMARK  Name = 
REMARK  6 active torsions:
REMARK  status: ('A' for Active; 'I' for Inactive)
REMARK    1  A    between atoms: C6_3  and  N6_19
REMARK    2  A    between atoms: N9_7  and  C1*_10
REMARK    3  A    between atoms: C2*_11  and  O2*_18
REMARK    4  A    between atoms: C3*_12  and  O3*_17
REMARK    5  A    between atoms: C4*_13  and  C5*_15
REMARK    6  A    between atoms: C5*_15  and  O5*_16
REMARK                            x       y       z     vdW  Elec       q    Type
REMARK                         _______ _______ _______ _____ _____    ______ ____
ROOT
ATOM      1  C2    A A   1      13.030   4.079  20.322  1.00  0.00    +0.000 A 
ATOM      2  N1    A A   1      12.770   4.284  19.011  1.00  0.00    +0.000 NA
ATOM      3  C6    A A   1      12.590   3.203  18.219  1.00  0.00    +0.000 A 
ATOM      4  C5    A A   1      12.652   1.924  18.801  1.00  0.00    +0.000 A 
ATOM      5  C4    A A   1      12.920   1.872  20.159  1.00  0.00    +0.000 A 
ATOM      6  N3    A A   1      13.129   2.910  20.986  1.00  0.00    +0.000 NA
ATOM      7  N9    A A   1      12.913   0.540  20.467  1.00  0.00    +0.000 N 
ATOM      8  C8    A A   1      12.655  -0.148  19.309  1.00  0.00    +0.000 A 
ATOM      9  N7    A A   1      12.481   0.657  18.282  1.00  0.00    +0.000 NA
ENDROOT
BRANCH   7  10
ATOM     10  C1*   A A   1      13.114  -0.023  21.786  1.00  0.00    +0.000 C 
ATOM     11  C2*   A A   1      12.850  -1.529  21.852  1.00  0.00    +0.000 C 
ATOM     12  C3*   A A   1      13.775  -1.942  22.985  1.00  0.00    +0.000 C 
ATOM     13  C4*   A A   1      14.975  -1.013  22.820  1.00  0.00    +0.000 C 
ATOM     14  O4*   A A   1      14.488   0.194  22.186  1.00  0.00    +0.000 OA
BRANCH  12  15
ATOM     15  O3*   A A   1      13.090  -1.662  24.225  1.00  0.00    +0.000 OA
ATOM     16  H3*   A A   1      12.357  -1.053  24.022  1.00  0.00    +0.000 HD
ENDBRANCH  12  15
BRANCH  11  17
ATOM     17  O2*   A A   1      11.495  -1.866  22.154  1.00  0.00    +0.000 OA
ATOM     18  H2*   A A   1      11.547  -2.616  22.781  1.00  0.00    +0.000 HD
ENDBRANCH  11  17
BRANCH  13  19
ATOM     19  C5*   A A   1      16.103  -1.602  21.965  1.00  0.00    +0.000 C 
BRANCH  19  20
ATOM     20  O5*   A A   1      16.559  -2.842  22.495  1.00  0.00    +0.000 OA
ATOM     21  H5*   A A   1      17.531  -2.795  22.543  1.00  0.00    +0.000 HD
ENDBRANCH  19  20
ENDBRANCH  13  19
ENDBRANCH   7  10
BRANCH   3  22
ATOM     22  N6    A A   1      12.323   3.412  16.870  1.00  0.00    +0.000 N 
ATOM     23  H61   A A   1      13.174   3.527  16.336  1.00  0.00    +0.000 HD
ATOM     24  H62   A A   1      11.579   4.086  16.719  1.00  0.00    +0.000 HD
ENDBRANCH   3  22
TORSDOF 6
ENDMDL
MODEL 6
REMARK VINA RESULT:    -5.101      3.557      5.654
REMARK INTER + INTRA:          -6.529
REMARK INTER:                  -6.608
REMARK INTRA:                   0.078
REMARK UNBOUND:                -0.236
REMARK  Name = 
REMARK  6 active torsions:
REMARK  status: ('A' for Active; 'I' for Inactive)
REMARK    1  A    between atoms: C6_3  and  N6_19
REMARK    2  A    between atoms: N9_7  and  C1*_10
REMARK    3  A    between atoms: C2*_11  and  O2*_18
REMARK    4  A    between atoms: C3*_12  and  O3*_17
REMARK    5  A    between atoms: C4*_13  and  C5*_15
REMARK    6  A    between atoms: C5*_15  and  O5*_16
REMARK                            x       y       z     vdW  Elec       q    Type
REMARK                         _______ _______ _______ _____ _____    ______ ____
ROOT
ATOM      1  C2    A A   1      13.447   2.997  20.959  1.00  0.00    +0.000 A 
ATOM      2  N1    A A   1      13.095   3.657  19.832  1.00  0.00    +0.000 NA
ATOM      3  C6    A A   1      12.760   2.928  18.743  1.00  0.00    +0.000 A 
ATOM      4  C5    A A   1      12.764   1.526  18.845  1.00  0.00    +0.000 A 
ATOM      5  C4    A A   1      13.139   0.992  20.066  1.00  0.00    +0.000 A 
ATOM      6  N3    A A   1      13.503   1.667  21.170  1.00  0.00    +0.000 NA
ATOM      7  N9    A A   1      13.047  -0.362  19.901  1.00  0.00    +0.000 N 
ATOM      8  C8    A A   1      12.637  -0.591  18.613  1.00  0.00    +0.000 A 
ATOM      9  N7    A A   1      12.445   0.528  17.946  1.00  0.00    +0.000 NA
ENDROOT
BRANCH   7  10
ATOM     10  C1*   A A   1      13.311  -1.357  20.919  1.00  0.00    +0.000 C 
ATOM     11  C2*   A A   1      14.389  -0.934  21.919  1.00  0.00    +0.000 C 
ATOM     12  C3*   A A   1      13.960  -1.701  23.160  1.00  0.00    +0.000 C 
ATOM     13  C4*   A A   1      12.436  -1.692  23.072  1.00  0.00    +0.000 C 
ATOM     14  O4*   A A   1      12.095  -1.597  21.669  1.00  0.00    +0.000 OA
BRANCH  12  15
ATOM     15  O3*   A A   1      14.462  -3.048  23.028  1.00  0.00    +0.000 OA
ATOM     16  H3*   A A   1      13.758  -3.584  22.620  1.00  0.00    +0.000 HD
ENDBRANCH  12  15
BRANCH  11  17
ATOM     17  O2*   A A   1      15.714  -1.299  21.530  1.00  0.00    +0.000 OA
ATOM     18  H2*   A A   1      16.146  -1.624  22.347  1.00  0.00    +0.000 HD
ENDBRANCH  11  17
BRANCH  13  19
ATOM     19  C5*   A A   1      11.778  -0.527  23.821  1.00  0.00    +0.000 C 
BRANCH  19  20
ATOM     20  O5*   A A   1      10.379  -0.735  23.974  1.00  0.00    +0.000 OA
ATOM     21  H5*   A A   1      10.149  -1.539  23.473  1.00  0.00    +0.000 HD
ENDBRANCH  19  20
ENDBRANCH  13  19
ENDBRANCH   7  10
BRANCH   3  22
ATOM     22  N6    A A   1      12.400   3.606  17.584  1.00  0.00    +0.000 N 
ATOM     23  H61   A A   1      12.502   4.607  17.691  1.00  0.00    +0.000 HD
ATOM     24  H62   A A   1      11.532   3.263  17.184  1.00  0.00    +0.000 HD
ENDBRANCH   3  22
TORSDOF 6
ENDMDL
MODEL 7
REMARK VINA RESULT:    -5.050      3.696      5.285
REMARK INTER + INTRA:          -6.467
REMARK INTER:                  -6.080
REMARK INTRA:                  -0.387
REMARK UNBOUND:                -0.236
REMARK  Name = 
REMARK  6 active torsions:
REMARK  status: ('A' for Active; 'I' for Inactive)
REMARK    1  A    between atoms: C6_3  and  N6_19
REMARK    2  A    between atoms: N9_7  and  C1*_10
REMARK    3  A    between atoms: C2*_11  and  O2*_18
REMARK    4  A    between atoms: C3*_12  and  O3*_17
REMARK    5  A    between atoms: C4*_13  and  C5*_15
REMARK    6  A    between atoms: C5*_15  and  O5*_16
REMARK                            x       y       z     vdW  Elec       q    Type
REMARK                         _______ _______ _______ _____ _____    ______ ____
ROOT
ATOM      1  C2    A A   1      15.791  -1.135  22.124  1.00  0.00    +0.000 A 
ATOM      2  N1    A A   1      15.164  -2.035  22.916  1.00  0.00    +0.000 NA
ATOM      3  C6    A A   1      13.812  -2.035  22.936  1.00  0.00    +0.000 A 
ATOM      4  C5    A A   1      13.126  -1.124  22.113  1.00  0.00    +0.000 A 
ATOM      5  C4    A A   1      13.904  -0.269  21.350  1.00  0.00    +0.000 A 
ATOM      6  N3    A A   1      15.246  -0.211  21.309  1.00  0.00    +0.000 NA
ATOM      7  N9    A A   1      13.007   0.488  20.648  1.00  0.00    +0.000 N 
ATOM      8  C8    A A   1      11.750   0.076  21.009  1.00  0.00    +0.000 A 
ATOM      9  N7    A A   1      11.783  -0.905  21.887  1.00  0.00    +0.000 NA
ENDROOT
BRANCH   7  10
ATOM     10  C1*   A A   1      13.342   1.512  19.680  1.00  0.00    +0.000 C 
ATOM     11  C2*   A A   1      12.291   1.676  18.580  1.00  0.00    +0.000 C 
ATOM     12  C3*   A A   1      12.471   3.141  18.215  1.00  0.00    +0.000 C 
ATOM     13  C4*   A A   1      12.821   3.798  19.548  1.00  0.00    +0.000 C 
ATOM     14  O4*   A A   1      13.457   2.784  20.362  1.00  0.00    +0.000 OA
BRANCH  12  15
ATOM     15  O3*   A A   1      13.589   3.224  17.306  1.00  0.00    +0.000 OA
ATOM     16  H3*   A A   1      14.295   2.653  17.657  1.00  0.00    +0.000 HD
ENDBRANCH  12  15
BRANCH  11  17
ATOM     17  O2*   A A   1      12.509   0.840  17.443  1.00  0.00    +0.000 OA
ATOM     18  H2*   A A   1      13.392   0.438  17.580  1.00  0.00    +0.000 HD
ENDBRANCH  11  17
BRANCH  13  19
ATOM     19  C5*   A A   1      11.609   4.352  20.304  1.00  0.00    +0.000 C 
BRANCH  19  20
ATOM     20  O5*   A A   1      11.711   5.761  20.483  1.00  0.00    +0.000 OA
ATOM     21  H5*   A A   1      11.332   5.970  21.357  1.00  0.00    +0.000 HD
ENDBRANCH  19  20
ENDBRANCH  13  19
ENDBRANCH   7  10
BRANCH   3  22
ATOM     22  N6    A A   1      13.167  -2.958  23.751  1.00  0.00    +0.000 N 
ATOM     23  H61   A A   1      12.702  -2.508  24.529  1.00  0.00    +0.000 HD
ATOM     24  H62   A A   1      13.741  -3.770  23.953  1.00  0.00    +0.000 HD
ENDBRANCH   3  22
TORSDOF 6
ENDMDL
MODEL 8
REMARK VINA RESULT:    -5.041      1.277      2.335
REMARK INTER + INTRA:          -6.456
REMARK INTER:                  -6.731
REMARK INTRA:                   0.275
REMARK UNBOUND:                -0.236
REMARK  Name = 
REMARK  6 active torsions:
REMARK  status: ('A' for Active; 'I' for Inactive)
REMARK    1  A    between atoms: C6_3  and  N6_19
REMARK    2  A    between atoms: N9_7  and  C1*_10
REMARK    3  A    between atoms: C2*_11  and  O2*_18
REMARK    4  A    between atoms: C3*_12  and  O3*_17
REMARK    5  A    between atoms: C4*_13  and  C5*_15
REMARK    6  A    between atoms: C5*_15  and  O5*_16
REMARK                            x       y       z     vdW  Elec       q    Type
REMARK                         _______ _______ _______ _____ _____    ______ ____
ROOT
ATOM      1  C2    A A   1      10.452   1.209  25.598  1.00  0.00    +0.000 A 
ATOM      2  N1    A A   1       9.769   0.488  26.516  1.00  0.00    +0.000 NA
ATOM      3  C6    A A   1       9.695  -0.852  26.350  1.00  0.00    +0.000 A 
ATOM      4  C5    A A   1      10.354  -1.431  25.252  1.00  0.00    +0.000 A 
ATOM      5  C4    A A   1      11.021  -0.566  24.400  1.00  0.00    +0.000 A 
ATOM      6  N3    A A   1      11.107   0.771  24.505  1.00  0.00    +0.000 NA
ATOM      7  N9    A A   1      11.574  -1.372  23.443  1.00  0.00    +0.000 N 
ATOM      8  C8    A A   1      11.224  -2.663  23.742  1.00  0.00    +0.000 A 
ATOM      9  N7    A A   1      10.494  -2.739  24.836  1.00  0.00    +0.000 NA
ENDROOT
BRANCH   7  10
ATOM     10  C1*   A A   1      12.401  -0.928  22.341  1.00  0.00    +0.000 C 
ATOM     11  C2*   A A   1      13.191   0.346  22.647  1.00  0.00    +0.000 C 
ATOM     12  C3*   A A   1      14.404   0.166  21.749  1.00  0.00    +0.000 C 
ATOM     13  C4*   A A   1      14.642  -1.343  21.773  1.00  0.00    +0.000 C 
ATOM     14  O4*   A A   1      13.360  -1.966  22.023  1.00  0.00    +0.000 OA
BRANCH  12  15
ATOM     15  O3*   A A   1      14.026   0.593  20.423  1.00  0.00    +0.000 OA
ATOM     16  H3*   A A   1      14.248  -0.130  19.808  1.00  0.00    +0.000 HD
ENDBRANCH  12  15
BRANCH  11  17
ATOM     17  O2*   A A   1      12.495   1.550  22.323  1.00  0.00    +0.000 OA
ATOM     18  H2*   A A   1      12.825   1.813  21.439  1.00  0.00    +0.000 HD
ENDBRANCH  11  17
BRANCH  13  19
ATOM     19  C5*   A A   1      15.633  -1.798  22.850  1.00  0.00    +0.000 C 
BRANCH  19  20
ATOM     20  O5*   A A   1      16.633  -2.651  22.304  1.00  0.00    +0.000 OA
ATOM     21  H5*   A A   1      17.497  -2.309  22.598  1.00  0.00    +0.000 HD
ENDBRANCH  19  20
ENDBRANCH  13  19
ENDBRANCH   7  10
BRANCH   3  22
ATOM     22  N6    A A   1       8.992  -1.593  27.293  1.00  0.00    +0.000 N 
ATOM     23  H61   A A   1       9.600  -1.941  28.022  1.00  0.00    +0.000 HD
ATOM     24  H62   A A   1       8.343  -2.249  26.870  1.00  0.00    +0.000 HD
ENDBRANCH   3  22
TORSDOF 6
ENDMDL
MODEL 9
REMARK VINA RESULT:    -4.241      3.140      5.578
REMARK INTER + INTRA:          -5.469
REMARK INTER:                  -5.723
REMARK INTRA:                   0.254
REMARK UNBOUND:                -0.236
REMARK  Name = 
REMARK  6 active torsions:
REMARK  status: ('A' for Active; 'I' for Inactive)
REMARK    1  A    between atoms: C6_3  and  N6_19
REMARK    2  A    between atoms: N9_7  and  C1*_10
REMARK    3  A    between atoms: C2*_11  and  O2*_18
REMARK    4  A    between atoms: C3*_12  and  O3*_17
REMARK    5  A    between atoms: C4*_13  and  C5*_15
REMARK    6  A    between atoms: C5*_15  and  O5*_16
REMARK                            x       y       z     vdW  Elec       q    Type
REMARK                         _______ _______ _______ _____ _____    ______ ____
ROOT
ATOM      1  C2    A A   1      12.765   0.927  22.533  1.00  0.00    +0.000 A 
ATOM      2  N1    A A   1      13.709   0.379  21.735  1.00  0.00    +0.000 NA
ATOM      3  C6    A A   1      13.885  -0.961  21.781  1.00  0.00    +0.000 A 
ATOM      4  C5    A A   1      13.060  -1.719  22.630  1.00  0.00    +0.000 A 
ATOM      5  C4    A A   1      12.131  -1.019  23.382  1.00  0.00    +0.000 A 
ATOM      6  N3    A A   1      11.930   0.310  23.392  1.00  0.00    +0.000 NA
ATOM      7  N9    A A   1      11.465  -1.976  24.096  1.00  0.00    +0.000 N 
ATOM      8  C8    A A   1      12.008  -3.190  23.763  1.00  0.00    +0.000 A 
ATOM      9  N7    A A   1      12.970  -3.075  22.871  1.00  0.00    +0.000 NA
ENDROOT
BRANCH   7  10
ATOM     10  C1*   A A   1      10.368  -1.736  25.011  1.00  0.00    +0.000 C 
ATOM     11  C2*   A A   1      10.818  -1.522  26.458  1.00  0.00    +0.000 C 
ATOM     12  C3*   A A   1       9.708  -0.626  26.984  1.00  0.00    +0.000 C 
ATOM     13  C4*   A A   1       9.344   0.234  25.775  1.00  0.00    +0.000 C 
ATOM     14  O4*   A A   1       9.661  -0.542  24.596  1.00  0.00    +0.000 OA
BRANCH  12  15
ATOM     15  O3*   A A   1       8.600  -1.480  27.344  1.00  0.00    +0.000 OA
ATOM     16  H3*   A A   1       8.740  -2.339  26.908  1.00  0.00    +0.000 HD
ENDBRANCH  12  15
BRANCH  11  17
ATOM     17  O2*   A A   1      10.903  -2.726  27.221  1.00  0.00    +0.000 OA
ATOM     18  H2*   A A   1      11.142  -3.426  26.579  1.00  0.00    +0.000 HD
ENDBRANCH  11  17
BRANCH  13  19
ATOM     19  C5*   A A   1      10.101   1.565  25.711  1.00  0.00    +0.000 C 
BRANCH  19  20
ATOM     20  O5*   A A   1       9.656   2.461  26.723  1.00  0.00    +0.000 OA
ATOM     21  H5*   A A   1      10.429   2.985  27.007  1.00  0.00    +0.000 HD
ENDBRANCH  19  20
ENDBRANCH  13  19
ENDBRANCH   7  10
BRANCH   3  22
ATOM     22  N6    A A   1      14.857  -1.525  20.962  1.00  0.00    +0.000 N 
ATOM     23  H61   A A   1      14.447  -1.998  20.169  1.00  0.00    +0.000 HD
ATOM     24  H62   A A   1      15.572  -2.020  21.487  1.00  0.00    +0.000 HD
ENDBRANCH   3  22
TORSDOF 6
ENDMDL
