MODEL 1
REMARK VINA RESULT:    -6.263      0.000      0.000
REMARK INTER + INTRA:          -7.965
REMARK INTER:                  -7.727
REMARK INTRA:                  -0.238
REMARK UNBOUND:                -0.238
REMARK  Name = 
REMARK  6 active torsions:
REMARK  status: ('A' for Active; 'I' for Inactive)
REMARK    1  A    between atoms: C6_3  and  N6_19
REMARK    2  A    between atoms: N9_7  and  C1*_10
REMARK    3  A    between atoms: C2*_11  and  O2*_18
REMARK    4  A    between atoms: C3*_12  and  O3*_17
REMARK    5  A    between atoms: C4*_13  and  C5*_15
REMARK    6  A    between atoms: C5*_15  and  O5*_16
REMARK                            x       y       z     vdW  Elec       q    Type
REMARK                         _______ _______ _______ _____ _____    ______ ____
ROOT
ATOM      1  C2    A A   1      10.092   1.126  25.804  1.00  0.00    +0.000 A 
ATOM      2  N1    A A   1       9.058   0.394  26.278  1.00  0.00    +0.000 NA
ATOM      3  C6    A A   1       8.941  -0.888  25.865  1.00  0.00    +0.000 A 
ATOM      4  C5    A A   1       9.913  -1.406  24.992  1.00  0.00    +0.000 A 
ATOM      5  C4    A A   1      10.919  -0.539  24.599  1.00  0.00    +0.000 A 
ATOM      6  N3    A A   1      11.070   0.747  24.959  1.00  0.00    +0.000 NA
ATOM      7  N9    A A   1      11.722  -1.282  23.778  1.00  0.00    +0.000 N 
ATOM      8  C8    A A   1      11.180  -2.539  23.702  1.00  0.00    +0.000 A 
ATOM      9  N7    A A   1      10.089  -2.654  24.432  1.00  0.00    +0.000 NA
ENDROOT
BRANCH   7  10
ATOM     10  C1*   A A   1      12.936  -0.819  23.139  1.00  0.00    +0.000 C 
ATOM     11  C2*   A A   1      13.583  -1.867  22.230  1.00  0.00    +0.000 C 
ATOM     12  C3*   A A   1      14.286  -0.983  21.213  1.00  0.00    +0.000 C 
ATOM     13  C4*   A A   1      13.343   0.210  21.068  1.00  0.00    +0.000 C 
ATOM     14  O4*   A A   1      12.626   0.334  22.319  1.00  0.00    +0.000 OA
BRANCH  12  15
ATOM     15  O3*   A A   1      15.538  -0.564  21.798  1.00  0.00    +0.000 OA
ATOM     16  H3*   A A   1      15.975   0.028  21.160  1.00  0.00    +0.000 HD
ENDBRANCH  12  15
BRANCH  11  17
ATOM     17  O2*   A A   1      14.519  -2.713  22.899  1.00  0.00    +0.000 OA
ATOM     18  H2*   A A   1      15.202  -2.927  22.230  1.00  0.00    +0.000 HD
ENDBRANCH  11  17
BRANCH  13  19
ATOM     19  C5*   A A   1      12.329   0.064  19.927  1.00  0.00    +0.000 C 
BRANCH  19  20
ATOM     20  O5*   A A   1      12.799  -0.837  18.931  1.00  0.00    +0.000 OA
ATOM     21  H5*   A A   1      13.357  -1.499  19.379  1.00  0.00    +0.000 HD
ENDBRANCH  19  20
ENDBRANCH  13  19
ENDBRANCH   7  10
BRANCH   3  22
ATOM     22  N6    A A   1       7.877  -1.640  26.351  1.00  0.00    +0.000 N 
ATOM     23  H61   A A   1       7.006  -1.386  25.903  1.00  0.00    +0.000 HD
ATOM     24  H62   A A   1       7.880  -1.716  27.363  1.00  0.00    +0.000 HD
ENDBRANCH   3  22
TORSDOF 6
ENDMDL
MODEL 2
REMARK VINA RESULT:    -5.764      3.059      5.749
REMARK INTER + INTRA:          -7.350
REMARK INTER:                  -7.135
REMARK INTRA:                  -0.215
REMARK UNBOUND:                -0.238
REMARK  Name = 
REMARK  6 active torsions:
REMARK  status: ('A' for Active; 'I' for Inactive)
REMARK    1  A    between atoms: C6_3  and  N6_19
REMARK    2  A    between atoms: N9_7  and  C1*_10
REMARK    3  A    between atoms: C2*_11  and  O2*_18
REMARK    4  A    between atoms: C3*_12  and  O3*_17
REMARK    5  A    between atoms: C4*_13  and  C5*_15
REMARK    6  A    between atoms: C5*_15  and  O5*_16
REMARK                            x       y       z     vdW  Elec       q    Type
REMARK                         _______ _______ _______ _____ _____    ______ ____
ROOT
ATOM      1  C2    A A   1      13.134   0.792  21.770  1.00  0.00    +0.000 A 
ATOM      2  N1    A A   1      13.463  -0.048  20.762  1.00  0.00    +0.000 NA
ATOM      3  C6    A A   1      13.212  -1.367  20.922  1.00  0.00    +0.000 A 
ATOM      4  C5    A A   1      12.595  -1.795  22.110  1.00  0.00    +0.000 A 
ATOM      5  C4    A A   1      12.309  -0.818  23.049  1.00  0.00    +0.000 A 
ATOM      6  N3    A A   1      12.557   0.499  22.952  1.00  0.00    +0.000 NA
ATOM      7  N9    A A   1      11.713  -1.488  24.082  1.00  0.00    +0.000 N 
ATOM      8  C8    A A   1      11.669  -2.815  23.740  1.00  0.00    +0.000 A 
ATOM      9  N7    A A   1      12.185  -3.038  22.549  1.00  0.00    +0.000 NA
ENDROOT
BRANCH   7  10
ATOM     10  C1*   A A   1      11.201  -0.886  25.295  1.00  0.00    +0.000 C 
ATOM     11  C2*   A A   1      10.263   0.295  25.040  1.00  0.00    +0.000 C 
ATOM     12  C3*   A A   1       9.372   0.237  26.270  1.00  0.00    +0.000 C 
ATOM     13  C4*   A A   1       9.253  -1.259  26.551  1.00  0.00    +0.000 C 
ATOM     14  O4*   A A   1      10.454  -1.880  26.036  1.00  0.00    +0.000 OA
BRANCH  12  15
ATOM     15  O3*   A A   1      10.077   0.895  27.344  1.00  0.00    +0.000 OA
ATOM     16  H3*   A A   1      10.560   0.209  27.840  1.00  0.00    +0.000 HD
ENDBRANCH  12  15
BRANCH  11  17
ATOM     17  O2*   A A   1      10.929   1.556  24.955  1.00  0.00    +0.000 OA
ATOM     18  H2*   A A   1      11.885   1.351  25.017  1.00  0.00    +0.000 HD
ENDBRANCH  11  17
BRANCH  13  19
ATOM     19  C5*   A A   1       8.034  -1.918  25.895  1.00  0.00    +0.000 C 
BRANCH  19  20
ATOM     20  O5*   A A   1       6.831  -1.245  26.247  1.00  0.00    +0.000 OA
ATOM     21  H5*   A A   1       6.225  -1.911  26.622  1.00  0.00    +0.000 HD
ENDBRANCH  19  20
ENDBRANCH  13  19
ENDBRANCH   7  10
BRANCH   3  22
ATOM     22  N6    A A   1      13.551  -2.231  19.886  1.00  0.00    +0.000 N 
ATOM     23  H61   A A   1      12.957  -3.049  19.874  1.00  0.00    +0.000 HD
ATOM     24  H62   A A   1      14.553  -2.376  19.811  1.00  0.00    +0.000 HD
ENDBRANCH   3  22
TORSDOF 6
ENDMDL
MODEL 3
REMARK VINA RESULT:    -5.671      3.269      5.654
REMARK INTER + INTRA:          -7.236
REMARK INTER:                  -6.807
REMARK INTRA:                  -0.428
REMARK UNBOUND:                -0.238
REMARK  Name = 
REMARK  6 active torsions:
REMARK  status: ('A' for Active; 'I' for Inactive)
REMARK    1  A    between atoms: C6_3  and  N6_19
REMARK    2  A    between atoms: N9_7  and  C1*_10
REMARK    3  A    between atoms: C2*_11  and  O2*_18
REMARK    4  A    between atoms: C3*_12  and  O3*_17
REMARK    5  A    between atoms: C4*_13  and  C5*_15
REMARK    6  A    between atoms: C5*_15  and  O5*_16
REMARK                            x       y       z     vdW  Elec       q    Type
REMARK                         _______ _______ _______ _____ _____    ______ ____
ROOT
ATOM      1  C2    A A   1      12.725   2.848  20.606  1.00  0.00    +0.000 A 
ATOM      2  N1    A A   1      12.710   2.809  19.254  1.00  0.00    +0.000 NA
ATOM      3  C6    A A   1      12.743   1.601  18.648  1.00  0.00    +0.000 A 
ATOM      4  C5    A A   1      12.761   0.447  19.451  1.00  0.00    +0.000 A 
ATOM      5  C4    A A   1      12.766   0.643  20.822  1.00  0.00    +0.000 A 
ATOM      6  N3    A A   1      12.757   1.817  21.474  1.00  0.00    +0.000 NA
ATOM      7  N9    A A   1      12.771  -0.616  21.356  1.00  0.00    +0.000 N 
ATOM      8  C8    A A   1      12.776  -1.505  20.313  1.00  0.00    +0.000 A 
ATOM      9  N7    A A   1      12.760  -0.899  19.144  1.00  0.00    +0.000 NA
ENDROOT
BRANCH   7  10
ATOM     10  C1*   A A   1      12.745  -0.934  22.769  1.00  0.00    +0.000 C 
ATOM     11  C2*   A A   1      11.331  -1.078  23.335  1.00  0.00    +0.000 C 
ATOM     12  C3*   A A   1      11.566  -2.057  24.473  1.00  0.00    +0.000 C 
ATOM     13  C4*   A A   1      12.665  -2.970  23.934  1.00  0.00    +0.000 C 
ATOM     14  O4*   A A   1      13.428  -2.193  22.981  1.00  0.00    +0.000 OA
BRANCH  12  15
ATOM     15  O3*   A A   1      12.053  -1.298  25.601  1.00  0.00    +0.000 OA
ATOM     16  H3*   A A   1      12.379  -1.934  26.263  1.00  0.00    +0.000 HD
ENDBRANCH  12  15
BRANCH  11  17
ATOM     17  O2*   A A   1      10.776   0.144  23.823  1.00  0.00    +0.000 OA
ATOM     18  H2*   A A   1      10.469  -0.054  24.732  1.00  0.00    +0.000 HD
ENDBRANCH  11  17
BRANCH  13  19
ATOM     19  C5*   A A   1      12.139  -4.231  23.239  1.00  0.00    +0.000 C 
BRANCH  19  20
ATOM     20  O5*   A A   1      12.894  -5.379  23.609  1.00  0.00    +0.000 OA
ATOM     21  H5*   A A   1      13.805  -5.241  23.291  1.00  0.00    +0.000 HD
ENDBRANCH  19  20
ENDBRANCH  13  19
ENDBRANCH   7  10
BRANCH   3  22
ATOM     22  N6    A A   1      12.728   1.561  17.259  1.00  0.00    +0.000 N 
ATOM     23  H61   A A   1      12.818   2.486  16.859  1.00  0.00    +0.000 HD
ATOM     24  H62   A A   1      11.998   0.959  16.892  1.00  0.00    +0.000 HD
ENDBRANCH   3  22
TORSDOF 6
ENDMDL
MODEL 4
REMARK VINA RESULT:    -5.543      3.330      5.882
REMARK INTER + INTRA:          -7.078
REMARK INTER:                  -6.629
REMARK INTRA:                  -0.449
REMARK UNBOUND:                -0.238
REMARK  Name = 
REMARK  6 active torsions:
REMARK  status: ('A' for Active; 'I' for Inactive)
REMARK    1  A    between atoms: C6_3  and  N6_19
REMARK    2  A    between atoms: N9_7  and  C1*_10
REMARK    3  A    between atoms: C2*_11  and  O2*_18
REMARK    4  A    between atoms: C3*_12  and  O3*_17
REMARK    5  A    between atoms: C4*_13  and  C5*_15
REMARK    6  A    between atoms: C5*_15  and  O5*_16
REMARK                            x       y       z     vdW  Elec       q    Type
REMARK                         _______ _______ _______ _____ _____    ______ ____
ROOT
ATOM      1  C2    A A   1      12.635   0.964  17.752  1.00  0.00    +0.000 A 
ATOM      2  N1    A A   1      12.748   2.311  17.719  1.00  0.00    +0.000 NA
ATOM      3  C6    A A   1      12.815   2.976  18.895  1.00  0.00    +0.000 A 
ATOM      4  C5    A A   1      12.795   2.234  20.089  1.00  0.00    +0.000 A 
ATOM      5  C4    A A   1      12.683   0.859  19.964  1.00  0.00    +0.000 A 
ATOM      6  N3    A A   1      12.590   0.151  18.826  1.00  0.00    +0.000 NA
ATOM      7  N9    A A   1      12.699   0.388  21.248  1.00  0.00    +0.000 N 
ATOM      8  C8    A A   1      12.810   1.471  22.082  1.00  0.00    +0.000 A 
ATOM      9  N7    A A   1      12.881   2.605  21.415  1.00  0.00    +0.000 NA
ENDROOT
BRANCH   7  10
ATOM     10  C1*   A A   1      12.639  -1.006  21.637  1.00  0.00    +0.000 C 
ATOM     11  C2*   A A   1      13.736  -1.410  22.624  1.00  0.00    +0.000 C 
ATOM     12  C3*   A A   1      13.056  -2.545  23.374  1.00  0.00    +0.000 C 
ATOM     13  C4*   A A   1      11.594  -2.108  23.428  1.00  0.00    +0.000 C 
ATOM     14  O4*   A A   1      11.365  -1.262  22.276  1.00  0.00    +0.000 OA
BRANCH  12  15
ATOM     15  O3*   A A   1      13.195  -3.736  22.570  1.00  0.00    +0.000 OA
ATOM     16  H3*   A A   1      13.884  -4.287  22.981  1.00  0.00    +0.000 HD
ENDBRANCH  12  15
BRANCH  11  17
ATOM     17  O2*   A A   1      14.938  -1.863  22.000  1.00  0.00    +0.000 OA
ATOM     18  H2*   A A   1      15.666  -1.431  22.492  1.00  0.00    +0.000 HD
ENDBRANCH  11  17
BRANCH  13  19
ATOM     19  C5*   A A   1      11.226  -1.329  24.696  1.00  0.00    +0.000 C 
BRANCH  19  20
ATOM     20  O5*   A A   1      10.157  -0.422  24.453  1.00  0.00    +0.000 OA
ATOM     21  H5*   A A   1       9.396  -0.721  24.985  1.00  0.00    +0.000 HD
ENDBRANCH  19  20
ENDBRANCH  13  19
ENDBRANCH   7  10
BRANCH   3  22
ATOM     22  N6    A A   1      12.931   4.361  18.862  1.00  0.00    +0.000 N 
ATOM     23  H61   A A   1      12.639   4.780  19.735  1.00  0.00    +0.000 HD
ATOM     24  H62   A A   1      12.568   4.763  18.003  1.00  0.00    +0.000 HD
ENDBRANCH   3  22
TORSDOF 6
ENDMDL
MODEL 5
REMARK VINA RESULT:    -5.404      2.717      4.493
REMARK INTER + INTRA:          -6.906
REMARK INTER:                  -6.386
REMARK INTRA:                  -0.520
REMARK UNBOUND:                -0.238
REMARK  Name = 
REMARK  6 active torsions:
REMARK  status: ('A' for Active; 'I' for Inactive)
REMARK    1  A    between atoms: C6_3  and  N6_19
REMARK    2  A    between atoms: N9_7  and  C1*_10
REMARK    3  A    between atoms: C2*_11  and  O2*_18
REMARK    4  A    between atoms: C3*_12  and  O3*_17
REMARK    5  A    between atoms: C4*_13  and  C5*_15
REMARK    6  A    between atoms: C5*_15  and  O5*_16
REMARK                            x       y       z     vdW  Elec       q    Type
REMARK                         _______ _______ _______ _____ _____    ______ ____
ROOT
ATOM      1  C2    A A   1      12.822  -2.728  21.717  1.00  0.00    +0.000 A 
ATOM      2  N1    A A   1      12.282  -3.023  22.922  1.00  0.00    +0.000 NA
ATOM      3  C6    A A   1      11.906  -2.000  23.721  1.00  0.00    +0.000 A 
ATOM      4  C5    A A   1      12.065  -0.685  23.251  1.00  0.00    +0.000 A 
ATOM      5  C4    A A   1      12.625  -0.538  21.993  1.00  0.00    +0.000 A 
ATOM      6  N3    A A   1      13.037  -1.516  21.168  1.00  0.00    +0.000 NA
ATOM      7  N9    A A   1      12.655   0.812  21.777  1.00  0.00    +0.000 N 
ATOM      8  C8    A A   1      12.131   1.417  22.889  1.00  0.00    +0.000 A 
ATOM      9  N7    A A   1      11.754   0.543  23.799  1.00  0.00    +0.000 NA
ENDROOT
BRANCH   7  10
ATOM     10  C1*   A A   1      13.130   1.464  20.574  1.00  0.00    +0.000 C 
ATOM     11  C2*   A A   1      12.200   1.278  19.373  1.00  0.00    +0.000 C 
ATOM     12  C3*   A A   1      12.483   2.544  18.580  1.00  0.00    +0.000 C 
ATOM     13  C4*   A A   1      12.732   3.592  19.663  1.00  0.00    +0.000 C 
ATOM     14  O4*   A A   1      13.238   2.887  20.822  1.00  0.00    +0.000 OA
BRANCH  12  15
ATOM     15  O3*   A A   1      13.687   2.314  17.817  1.00  0.00    +0.000 OA
ATOM     16  H3*   A A   1      14.256   3.097  17.926  1.00  0.00    +0.000 HD
ENDBRANCH  12  15
BRANCH  11  17
ATOM     17  O2*   A A   1      12.488   0.116  18.594  1.00  0.00    +0.000 OA
ATOM     18  H2*   A A   1      12.779   0.453  17.721  1.00  0.00    +0.000 HD
ENDBRANCH  11  17
BRANCH  13  19
ATOM     19  C5*   A A   1      11.479   4.376  20.067  1.00  0.00    +0.000 C 
BRANCH  19  20
ATOM     20  O5*   A A   1      11.799   5.721  20.407  1.00  0.00    +0.000 OA
ATOM     21  H5*   A A   1      12.660   5.926  19.999  1.00  0.00    +0.000 HD
ENDBRANCH  19  20
ENDBRANCH  13  19
ENDBRANCH   7  10
BRANCH   3  22
ATOM     22  N6    A A   1      11.352  -2.303  24.960  1.00  0.00    +0.000 N 
ATOM     23  H61   A A   1      11.960  -2.901  25.504  1.00  0.00    +0.000 HD
ATOM     24  H62   A A   1      10.372  -2.560  24.899  1.00  0.00    +0.000 HD
ENDBRANCH   3  22
TORSDOF 6
ENDMDL
MODEL 6
REMARK VINA RESULT:    -5.106      1.299      2.355
REMARK INTER + INTRA:          -6.538
REMARK INTER:                  -6.838
REMARK INTRA:                   0.300
REMARK UNBOUND:                -0.238
REMARK  Name = 
REMARK  6 active torsions:
REMARK  status: ('A' for Active; 'I' for Inactive)
REMARK    1  A    between atoms: C6_3  and  N6_19
REMARK    2  A    between atoms: N9_7  and  C1*_10
REMARK    3  A    between atoms: C2*_11  and  O2*_18
REMARK    4  A    between atoms: C3*_12  and  O3*_17
REMARK    5  A    between atoms: C4*_13  and  C5*_15
REMARK    6  A    between atoms: C5*_15  and  O5*_16
REMARK                            x       y       z     vdW  Elec       q    Type
REMARK                         _______ _______ _______ _____ _____    ______ ____
ROOT
ATOM      1  C2    A A   1      10.522   1.179  25.474  1.00  0.00    +0.000 A 
ATOM      2  N1    A A   1       9.841   0.451  26.388  1.00  0.00    +0.000 NA
ATOM      3  C6    A A   1       9.772  -0.889  26.215  1.00  0.00    +0.000 A 
ATOM      4  C5    A A   1      10.437  -1.460  25.115  1.00  0.00    +0.000 A 
ATOM      5  C4    A A   1      11.101  -0.588  24.269  1.00  0.00    +0.000 A 
ATOM      6  N3    A A   1      11.181   0.749  24.380  1.00  0.00    +0.000 NA
ATOM      7  N9    A A   1      11.660  -1.387  23.310  1.00  0.00    +0.000 N 
ATOM      8  C8    A A   1      11.315  -2.681  23.602  1.00  0.00    +0.000 A 
ATOM      9  N7    A A   1      10.583  -2.765  24.693  1.00  0.00    +0.000 NA
ENDROOT
BRANCH   7  10
ATOM     10  C1*   A A   1      12.488  -0.934  22.211  1.00  0.00    +0.000 C 
ATOM     11  C2*   A A   1      13.207   0.386  22.495  1.00  0.00    +0.000 C 
ATOM     12  C3*   A A   1      14.446   0.241  21.627  1.00  0.00    +0.000 C 
ATOM     13  C4*   A A   1      14.757  -1.252  21.700  1.00  0.00    +0.000 C 
ATOM     14  O4*   A A   1      13.502  -1.932  21.944  1.00  0.00    +0.000 OA
BRANCH  12  15
ATOM     15  O3*   A A   1      14.075   0.610  20.281  1.00  0.00    +0.000 OA
ATOM     16  H3*   A A   1      13.122   0.809  20.285  1.00  0.00    +0.000 HD
ENDBRANCH  12  15
BRANCH  11  17
ATOM     17  O2*   A A   1      12.459   1.544  22.121  1.00  0.00    +0.000 OA
ATOM     18  H2*   A A   1      11.524   1.325  22.317  1.00  0.00    +0.000 HD
ENDBRANCH  11  17
BRANCH  13  19
ATOM     19  C5*   A A   1      15.747  -1.626  22.810  1.00  0.00    +0.000 C 
BRANCH  19  20
ATOM     20  O5*   A A   1      16.530  -2.757  22.444  1.00  0.00    +0.000 OA
ATOM     21  H5*   A A   1      15.922  -3.423  22.074  1.00  0.00    +0.000 HD
ENDBRANCH  19  20
ENDBRANCH  13  19
ENDBRANCH   7  10
BRANCH   3  22
ATOM     22  N6    A A   1       9.071  -1.638  27.153  1.00  0.00    +0.000 N 
ATOM     23  H61   A A   1       8.932  -2.590  26.841  1.00  0.00    +0.000 HD
ATOM     24  H62   A A   1       8.267  -1.144  27.526  1.00  0.00    +0.000 HD
ENDBRANCH   3  22
TORSDOF 6
ENDMDL
MODEL 7
REMARK VINA RESULT:    -4.629      3.549      5.603
REMARK INTER + INTRA:          -5.949
REMARK INTER:                  -6.168
REMARK INTRA:                   0.218
REMARK UNBOUND:                -0.238
REMARK  Name = 
REMARK  6 active torsions:
REMARK  status: ('A' for Active; 'I' for Inactive)
REMARK    1  A    between atoms: C6_3  and  N6_19
REMARK    2  A    between atoms: N9_7  and  C1*_10
REMARK    3  A    between atoms: C2*_11  and  O2*_18
REMARK    4  A    between atoms: C3*_12  and  O3*_17
REMARK    5  A    between atoms: C4*_13  and  C5*_15
REMARK    6  A    between atoms: C5*_15  and  O5*_16
REMARK                            x       y       z     vdW  Elec       q    Type
REMARK                         _______ _______ _______ _____ _____    ______ ____
ROOT
ATOM      1  C2    A A   1      13.322   2.980  21.044  1.00  0.00    +0.000 A 
ATOM      2  N1    A A   1      12.883   3.605  19.928  1.00  0.00    +0.000 NA
ATOM      3  C6    A A   1      12.571   2.847  18.852  1.00  0.00    +0.000 A 
ATOM      4  C5    A A   1      12.688   1.450  18.957  1.00  0.00    +0.000 A 
ATOM      5  C4    A A   1      13.143   0.953  20.167  1.00  0.00    +0.000 A 
ATOM      6  N3    A A   1      13.489   1.660  21.257  1.00  0.00    +0.000 NA
ATOM      7  N9    A A   1      13.152  -0.405  20.008  1.00  0.00    +0.000 N 
ATOM      8  C8    A A   1      12.719  -0.672  18.735  1.00  0.00    +0.000 A 
ATOM      9  N7    A A   1      12.419   0.426  18.072  1.00  0.00    +0.000 NA
ENDROOT
BRANCH   7  10
ATOM     10  C1*   A A   1      13.526  -1.371  21.020  1.00  0.00    +0.000 C 
ATOM     11  C2*   A A   1      14.162  -0.739  22.260  1.00  0.00    +0.000 C 
ATOM     12  C3*   A A   1      13.777  -1.742  23.335  1.00  0.00    +0.000 C 
ATOM     13  C4*   A A   1      12.395  -2.221  22.894  1.00  0.00    +0.000 C 
ATOM     14  O4*   A A   1      12.340  -2.080  21.455  1.00  0.00    +0.000 OA
BRANCH  12  15
ATOM     15  O3*   A A   1      14.727  -2.828  23.271  1.00  0.00    +0.000 OA
ATOM     16  H3*   A A   1      15.612  -2.435  23.164  1.00  0.00    +0.000 HD
ENDBRANCH  12  15
BRANCH  11  17
ATOM     17  O2*   A A   1      15.581  -0.604  22.176  1.00  0.00    +0.000 OA
ATOM     18  H2*   A A   1      15.812  -0.842  21.255  1.00  0.00    +0.000 HD
ENDBRANCH  11  17
BRANCH  13  19
ATOM     19  C5*   A A   1      11.238  -1.430  23.514  1.00  0.00    +0.000 C 
BRANCH  19  20
ATOM     20  O5*   A A   1      11.436  -1.232  24.909  1.00  0.00    +0.000 OA
ATOM     21  H5*   A A   1      10.858  -0.497  25.183  1.00  0.00    +0.000 HD
ENDBRANCH  19  20
ENDBRANCH  13  19
ENDBRANCH   7  10
BRANCH   3  22
ATOM     22  N6    A A   1      12.121   3.489  17.704  1.00  0.00    +0.000 N 
ATOM     23  H61   A A   1      11.433   2.934  17.212  1.00  0.00    +0.000 HD
ATOM     24  H62   A A   1      12.877   3.892  17.159  1.00  0.00    +0.000 HD
ENDBRANCH   3  22
TORSDOF 6
ENDMDL
MODEL 8
REMARK VINA RESULT:    -4.541      3.320      6.120
REMARK INTER + INTRA:          -5.841
REMARK INTER:                  -5.319
REMARK INTRA:                  -0.522
REMARK UNBOUND:                -0.238
REMARK  Name = 
REMARK  6 active torsions:
REMARK  status: ('A' for Active; 'I' for Inactive)
REMARK    1  A    between atoms: C6_3  and  N6_19
REMARK    2  A    between atoms: N9_7  and  C1*_10
REMARK    3  A    between atoms: C2*_11  and  O2*_18
REMARK    4  A    between atoms: C3*_12  and  O3*_17
REMARK    5  A    between atoms: C4*_13  and  C5*_15
REMARK    6  A    between atoms: C5*_15  and  O5*_16
REMARK                            x       y       z     vdW  Elec       q    Type
REMARK                         _______ _______ _______ _____ _____    ______ ____
ROOT
ATOM      1  C2    A A   1      12.837  -3.224  22.929  1.00  0.00    +0.000 A 
ATOM      2  N1    A A   1      13.757  -2.586  22.171  1.00  0.00    +0.000 NA
ATOM      3  C6    A A   1      13.704  -1.237  22.101  1.00  0.00    +0.000 A 
ATOM      4  C5    A A   1      12.717  -0.564  22.842  1.00  0.00    +0.000 A 
ATOM      5  C4    A A   1      11.848  -1.351  23.580  1.00  0.00    +0.000 A 
ATOM      6  N3    A A   1      11.842  -2.692  23.666  1.00  0.00    +0.000 NA
ATOM      7  N9    A A   1      11.013  -0.465  24.202  1.00  0.00    +0.000 N 
ATOM      8  C8    A A   1      11.394   0.796  23.821  1.00  0.00    +0.000 A 
ATOM      9  N7    A A   1      12.429   0.776  23.005  1.00  0.00    +0.000 NA
ENDROOT
BRANCH   7  10
ATOM     10  C1*   A A   1       9.945  -0.810  25.117  1.00  0.00    +0.000 C 
ATOM     11  C2*   A A   1      10.423  -1.036  26.553  1.00  0.00    +0.000 C 
ATOM     12  C3*   A A   1       9.183  -0.650  27.342  1.00  0.00    +0.000 C 
ATOM     13  C4*   A A   1       8.578   0.485  26.519  1.00  0.00    +0.000 C 
ATOM     14  O4*   A A   1       8.981   0.270  25.146  1.00  0.00    +0.000 OA
BRANCH  12  15
ATOM     15  O3*   A A   1       8.300  -1.793  27.344  1.00  0.00    +0.000 OA
ATOM     16  H3*   A A   1       7.409  -1.474  27.573  1.00  0.00    +0.000 HD
ENDBRANCH  12  15
BRANCH  11  17
ATOM     17  O2*   A A   1      10.802  -2.384  26.831  1.00  0.00    +0.000 OA
ATOM     18  H2*   A A   1      11.696  -2.328  27.228  1.00  0.00    +0.000 HD
ENDBRANCH  11  17
BRANCH  13  19
ATOM     19  C5*   A A   1       9.035   1.881  26.957  1.00  0.00    +0.000 C 
BRANCH  19  20
ATOM     20  O5*   A A   1       7.954   2.808  26.940  1.00  0.00    +0.000 OA
ATOM     21  H5*   A A   1       8.100   3.436  27.671  1.00  0.00    +0.000 HD
ENDBRANCH  19  20
ENDBRANCH  13  19
ENDBRANCH   7  10
BRANCH   3  22
ATOM     22  N6    A A   1      14.649  -0.580  21.321  1.00  0.00    +0.000 N 
ATOM     23  H61   A A   1      15.131  -1.220  20.704  1.00  0.00    +0.000 HD
ATOM     24  H62   A A   1      15.213   0.072  21.856  1.00  0.00    +0.000 HD
ENDBRANCH   3  22
TORSDOF 6
ENDMDL
MODEL 9
REMARK VINA RESULT:    -4.329      3.104      5.535
REMARK INTER + INTRA:          -5.579
REMARK INTER:                  -5.817
REMARK INTRA:                   0.238
REMARK UNBOUND:                -0.238
REMARK  Name = 
REMARK  6 active torsions:
REMARK  status: ('A' for Active; 'I' for Inactive)
REMARK    1  A    between atoms: C6_3  and  N6_19
REMARK    2  A    between atoms: N9_7  and  C1*_10
REMARK    3  A    between atoms: C2*_11  and  O2*_18
REMARK    4  A    between atoms: C3*_12  and  O3*_17
REMARK    5  A    between atoms: C4*_13  and  C5*_15
REMARK    6  A    between atoms: C5*_15  and  O5*_16
REMARK                            x       y       z     vdW  Elec       q    Type
REMARK                         _______ _______ _______ _____ _____    ______ ____
ROOT
ATOM      1  C2    A A   1      12.841   0.890  22.389  1.00  0.00    +0.000 A 
ATOM      2  N1    A A   1      13.701   0.301  21.528  1.00  0.00    +0.000 NA
ATOM      3  C6    A A   1      13.780  -1.049  21.526  1.00  0.00    +0.000 A 
ATOM      4  C5    A A   1      12.945  -1.772  22.394  1.00  0.00    +0.000 A 
ATOM      5  C4    A A   1      12.109  -1.032  23.213  1.00  0.00    +0.000 A 
ATOM      6  N3    A A   1      12.007   0.307  23.273  1.00  0.00    +0.000 NA
ATOM      7  N9    A A   1      11.410  -1.961  23.934  1.00  0.00    +0.000 N 
ATOM      8  C8    A A   1      11.844  -3.199  23.538  1.00  0.00    +0.000 A 
ATOM      9  N7    A A   1      12.766  -3.125  22.600  1.00  0.00    +0.000 NA
ENDROOT
BRANCH   7  10
ATOM     10  C1*   A A   1      10.381  -1.672  24.911  1.00  0.00    +0.000 C 
ATOM     11  C2*   A A   1      10.926  -1.470  26.327  1.00  0.00    +0.000 C 
ATOM     12  C3*   A A   1       9.887  -0.528  26.913  1.00  0.00    +0.000 C 
ATOM     13  C4*   A A   1       9.486   0.341  25.723  1.00  0.00    +0.000 C 
ATOM     14  O4*   A A   1       9.699  -0.452  24.531  1.00  0.00    +0.000 OA
BRANCH  12  15
ATOM     15  O3*   A A   1       8.770  -1.334  27.344  1.00  0.00    +0.000 OA
ATOM     16  H3*   A A   1       8.508  -1.021  28.229  1.00  0.00    +0.000 HD
ENDBRANCH  12  15
BRANCH  11  17
ATOM     17  O2*   A A   1      11.009  -2.673  27.092  1.00  0.00    +0.000 OA
ATOM     18  H2*   A A   1      11.966  -2.853  27.193  1.00  0.00    +0.000 HD
ENDBRANCH  11  17
BRANCH  13  19
ATOM     19  C5*   A A   1      10.291   1.640  25.604  1.00  0.00    +0.000 C 
BRANCH  19  20
ATOM     20  O5*   A A   1       9.902   2.582  26.597  1.00  0.00    +0.000 OA
ATOM     21  H5*   A A   1       9.858   3.456  26.167  1.00  0.00    +0.000 HD
ENDBRANCH  19  20
ENDBRANCH  13  19
ENDBRANCH   7  10
BRANCH   3  22
ATOM     22  N6    A A   1      14.665  -1.654  20.641  1.00  0.00    +0.000 N 
ATOM     23  H61   A A   1      14.326  -1.615  19.689  1.00  0.00    +0.000 HD
ATOM     24  H62   A A   1      15.009  -2.547  20.981  1.00  0.00    +0.000 HD
ENDBRANCH   3  22
TORSDOF 6
ENDMDL
