MODEL 1
REMARK VINA RESULT:    -6.575      0.000      0.000
REMARK INTER + INTRA:          -8.288
REMARK INTER:                  -8.113
REMARK INTRA:                  -0.175
REMARK UNBOUND:                -0.175
REMARK  Name = 
REMARK  6 active torsions:
REMARK  status: ('A' for Active; 'I' for Inactive)
REMARK    1  A    between atoms: C6_3  and  N6_19
REMARK    2  A    between atoms: N9_7  and  C1*_10
REMARK    3  A    between atoms: C2*_11  and  O2*_18
REMARK    4  A    between atoms: C3*_12  and  O3*_17
REMARK    5  A    between atoms: C4*_13  and  C5*_15
REMARK    6  A    between atoms: C5*_15  and  O5*_16
REMARK                            x       y       z     vdW  Elec       q    Type
REMARK                         _______ _______ _______ _____ _____    ______ ____
ROOT
ATOM      1  C2    A A   1      12.247  -6.181  -1.237  1.00  0.00    +0.000 A 
ATOM      2  N1    A A   1      13.375  -5.764  -1.856  1.00  0.00    +0.000 NA
ATOM      3  C6    A A   1      13.671  -4.445  -1.827  1.00  0.00    +0.000 A 
ATOM      4  C5    A A   1      12.811  -3.578  -1.130  1.00  0.00    +0.000 A 
ATOM      5  C4    A A   1      11.697  -4.151  -0.538  1.00  0.00    +0.000 A 
ATOM      6  N3    A A   1      11.344  -5.448  -0.556  1.00  0.00    +0.000 NA
ATOM      7  N9    A A   1      11.050  -3.112   0.072  1.00  0.00    +0.000 N 
ATOM      8  C8    A A   1      11.776  -1.975  -0.175  1.00  0.00    +0.000 A 
ATOM      9  N7    A A   1      12.854  -2.220  -0.891  1.00  0.00    +0.000 NA
ENDROOT
BRANCH   7  10
ATOM     10  C1*   A A   1       9.837  -3.216   0.855  1.00  0.00    +0.000 C 
ATOM     11  C2*   A A   1       9.293  -1.862   1.317  1.00  0.00    +0.000 C 
ATOM     12  C3*   A A   1       7.805  -2.159   1.416  1.00  0.00    +0.000 C 
ATOM     13  C4*   A A   1       7.563  -3.143   0.274  1.00  0.00    +0.000 C 
ATOM     14  O4*   A A   1       8.810  -3.844   0.052  1.00  0.00    +0.000 OA
BRANCH  12  15
ATOM     15  O3*   A A   1       7.579  -2.803   2.689  1.00  0.00    +0.000 OA
ATOM     16  H3*   A A   1       8.376  -3.320   2.901  1.00  0.00    +0.000 HD
ENDBRANCH  12  15
BRANCH  11  17
ATOM     17  O2*   A A   1       9.809  -1.430   2.576  1.00  0.00    +0.000 OA
ATOM     18  H2*   A A   1      10.693  -1.846   2.653  1.00  0.00    +0.000 HD
ENDBRANCH  11  17
BRANCH  13  19
ATOM     19  C5*   A A   1       7.129  -2.477  -1.037  1.00  0.00    +0.000 C 
BRANCH  19  20
ATOM     20  O5*   A A   1       5.749  -2.131  -1.008  1.00  0.00    +0.000 OA
ATOM     21  H5*   A A   1       5.407  -2.378  -0.129  1.00  0.00    +0.000 HD
ENDBRANCH  19  20
ENDBRANCH  13  19
ENDBRANCH   7  10
BRANCH   3  22
ATOM     22  N6    A A   1      14.830  -4.016  -2.464  1.00  0.00    +0.000 N 
ATOM     23  H61   A A   1      15.511  -4.760  -2.538  1.00  0.00    +0.000 HD
ATOM     24  H62   A A   1      15.153  -3.116  -2.126  1.00  0.00    +0.000 HD
ENDBRANCH   3  22
TORSDOF 6
ENDMDL
MODEL 2
REMARK VINA RESULT:    -6.515      4.029      5.953
REMARK INTER + INTRA:          -8.214
REMARK INTER:                  -7.809
REMARK INTRA:                  -0.405
REMARK UNBOUND:                -0.175
REMARK  Name = 
REMARK  6 active torsions:
REMARK  status: ('A' for Active; 'I' for Inactive)
REMARK    1  A    between atoms: C6_3  and  N6_19
REMARK    2  A    between atoms: N9_7  and  C1*_10
REMARK    3  A    between atoms: C2*_11  and  O2*_18
REMARK    4  A    between atoms: C3*_12  and  O3*_17
REMARK    5  A    between atoms: C4*_13  and  C5*_15
REMARK    6  A    between atoms: C5*_15  and  O5*_16
REMARK                            x       y       z     vdW  Elec       q    Type
REMARK                         _______ _______ _______ _____ _____    ______ ____
ROOT
ATOM      1  C2    A A   1       5.367  -6.428  -0.986  1.00  0.00    +0.000 A 
ATOM      2  N1    A A   1       4.327  -6.009  -1.742  1.00  0.00    +0.000 NA
ATOM      3  C6    A A   1       4.206  -4.685  -1.986  1.00  0.00    +0.000 A 
ATOM      4  C5    A A   1       5.181  -3.814  -1.469  1.00  0.00    +0.000 A 
ATOM      5  C4    A A   1       6.193  -4.389  -0.719  1.00  0.00    +0.000 A 
ATOM      6  N3    A A   1       6.348  -5.692  -0.427  1.00  0.00    +0.000 NA
ATOM      7  N9    A A   1       6.998  -3.345  -0.355  1.00  0.00    +0.000 N 
ATOM      8  C8    A A   1       6.450  -2.203  -0.880  1.00  0.00    +0.000 A 
ATOM      9  N7    A A   1       5.355  -2.449  -1.569  1.00  0.00    +0.000 NA
ENDROOT
BRANCH   7  10
ATOM     10  C1*   A A   1       8.217  -3.448   0.420  1.00  0.00    +0.000 C 
ATOM     11  C2*   A A   1       9.177  -2.277   0.201  1.00  0.00    +0.000 C 
ATOM     12  C3*   A A   1       9.902  -2.235   1.536  1.00  0.00    +0.000 C 
ATOM     13  C4*   A A   1       8.822  -2.637   2.538  1.00  0.00    +0.000 C 
ATOM     14  O4*   A A   1       7.880  -3.474   1.828  1.00  0.00    +0.000 OA
BRANCH  12  15
ATOM     15  O3*   A A   1      10.943  -3.234   1.493  1.00  0.00    +0.000 OA
ATOM     16  H3*   A A   1      10.531  -4.094   1.692  1.00  0.00    +0.000 HD
ENDBRANCH  12  15
BRANCH  11  17
ATOM     17  O2*   A A   1      10.100  -2.478  -0.871  1.00  0.00    +0.000 OA
ATOM     18  H2*   A A   1       9.895  -3.367  -1.228  1.00  0.00    +0.000 HD
ENDBRANCH  11  17
BRANCH  13  19
ATOM     19  C5*   A A   1       8.069  -1.449   3.148  1.00  0.00    +0.000 C 
BRANCH  19  20
ATOM     20  O5*   A A   1       8.961  -0.550   3.796  1.00  0.00    +0.000 OA
ATOM     21  H5*   A A   1       9.561  -1.084   4.348  1.00  0.00    +0.000 HD
ENDBRANCH  19  20
ENDBRANCH  13  19
ENDBRANCH   7  10
BRANCH   3  22
ATOM     22  N6    A A   1       3.136  -4.254  -2.763  1.00  0.00    +0.000 N 
ATOM     23  H61   A A   1       3.440  -3.647  -3.512  1.00  0.00    +0.000 HD
ATOM     24  H62   A A   1       2.344  -3.951  -2.205  1.00  0.00    +0.000 HD
ENDBRANCH   3  22
TORSDOF 6
ENDMDL
MODEL 3
REMARK VINA RESULT:    -5.765      3.363      6.118
REMARK INTER + INTRA:          -7.288
REMARK INTER:                  -6.922
REMARK INTRA:                  -0.365
REMARK UNBOUND:                -0.175
REMARK  Name = 
REMARK  6 active torsions:
REMARK  status: ('A' for Active; 'I' for Inactive)
REMARK    1  A    between atoms: C6_3  and  N6_19
REMARK    2  A    between atoms: N9_7  and  C1*_10
REMARK    3  A    between atoms: C2*_11  and  O2*_18
REMARK    4  A    between atoms: C3*_12  and  O3*_17
REMARK    5  A    between atoms: C4*_13  and  C5*_15
REMARK    6  A    between atoms: C5*_15  and  O5*_16
REMARK                            x       y       z     vdW  Elec       q    Type
REMARK                         _______ _______ _______ _____ _____    ______ ____
ROOT
ATOM      1  C2    A A   1       8.323  -4.325   0.289  1.00  0.00    +0.000 A 
ATOM      2  N1    A A   1       7.765  -3.171   0.721  1.00  0.00    +0.000 NA
ATOM      3  C6    A A   1       8.552  -2.076   0.815  1.00  0.00    +0.000 A 
ATOM      4  C5    A A   1       9.900  -2.181   0.431  1.00  0.00    +0.000 A 
ATOM      5  C4    A A   1      10.328  -3.427   0.000  1.00  0.00    +0.000 A 
ATOM      6  N3    A A   1       9.597  -4.550  -0.090  1.00  0.00    +0.000 NA
ATOM      7  N9    A A   1      11.647  -3.254  -0.318  1.00  0.00    +0.000 N 
ATOM      8  C8    A A   1      11.962  -1.943  -0.067  1.00  0.00    +0.000 A 
ATOM      9  N7    A A   1      10.927  -1.261   0.378  1.00  0.00    +0.000 NA
ENDROOT
BRANCH   7  10
ATOM     10  C1*   A A   1      12.528  -4.273  -0.850  1.00  0.00    +0.000 C 
ATOM     11  C2*   A A   1      13.831  -3.712  -1.424  1.00  0.00    +0.000 C 
ATOM     12  C3*   A A   1      14.776  -4.883  -1.212  1.00  0.00    +0.000 C 
ATOM     13  C4*   A A   1      14.292  -5.497   0.100  1.00  0.00    +0.000 C 
ATOM     14  O4*   A A   1      12.881  -5.191   0.212  1.00  0.00    +0.000 OA
BRANCH  12  15
ATOM     15  O3*   A A   1      14.570  -5.806  -2.303  1.00  0.00    +0.000 OA
ATOM     16  H3*   A A   1      15.432  -6.208  -2.513  1.00  0.00    +0.000 HD
ENDBRANCH  12  15
BRANCH  11  17
ATOM     17  O2*   A A   1      13.752  -3.367  -2.807  1.00  0.00    +0.000 OA
ATOM     18  H2*   A A   1      14.631  -2.999  -3.035  1.00  0.00    +0.000 HD
ENDBRANCH  11  17
BRANCH  13  19
ATOM     19  C5*   A A   1      15.015  -4.960   1.340  1.00  0.00    +0.000 C 
BRANCH  19  20
ATOM     20  O5*   A A   1      16.323  -5.511   1.454  1.00  0.00    +0.000 OA
ATOM     21  H5*   A A   1      16.353  -6.304   0.889  1.00  0.00    +0.000 HD
ENDBRANCH  19  20
ENDBRANCH  13  19
ENDBRANCH   7  10
BRANCH   3  22
ATOM     22  N6    A A   1       7.979  -0.890   1.261  1.00  0.00    +0.000 N 
ATOM     23  H61   A A   1       7.315  -0.523   0.592  1.00  0.00    +0.000 HD
ATOM     24  H62   A A   1       8.662  -0.246   1.647  1.00  0.00    +0.000 HD
ENDBRANCH   3  22
TORSDOF 6
ENDMDL
MODEL 4
REMARK VINA RESULT:    -5.739      1.447      2.465
REMARK INTER + INTRA:          -7.256
REMARK INTER:                  -7.355
REMARK INTRA:                   0.099
REMARK UNBOUND:                -0.175
REMARK  Name = 
REMARK  6 active torsions:
REMARK  status: ('A' for Active; 'I' for Inactive)
REMARK    1  A    between atoms: C6_3  and  N6_19
REMARK    2  A    between atoms: N9_7  and  C1*_10
REMARK    3  A    between atoms: C2*_11  and  O2*_18
REMARK    4  A    between atoms: C3*_12  and  O3*_17
REMARK    5  A    between atoms: C4*_13  and  C5*_15
REMARK    6  A    between atoms: C5*_15  and  O5*_16
REMARK                            x       y       z     vdW  Elec       q    Type
REMARK                         _______ _______ _______ _____ _____    ______ ____
ROOT
ATOM      1  C2    A A   1      11.790  -6.801  -0.846  1.00  0.00    +0.000 A 
ATOM      2  N1    A A   1      13.142  -6.823  -0.875  1.00  0.00    +0.000 NA
ATOM      3  C6    A A   1      13.804  -5.655  -0.709  1.00  0.00    +0.000 A 
ATOM      4  C5    A A   1      13.058  -4.485  -0.483  1.00  0.00    +0.000 A 
ATOM      5  C4    A A   1      11.679  -4.620  -0.472  1.00  0.00    +0.000 A 
ATOM      6  N3    A A   1      10.972  -5.748  -0.654  1.00  0.00    +0.000 NA
ATOM      7  N9    A A   1      11.206  -3.361  -0.225  1.00  0.00    +0.000 N 
ATOM      8  C8    A A   1      12.290  -2.530  -0.107  1.00  0.00    +0.000 A 
ATOM      9  N7    A A   1      13.429  -3.178  -0.247  1.00  0.00    +0.000 NA
ENDROOT
BRANCH   7  10
ATOM     10  C1*   A A   1       9.811  -2.995  -0.088  1.00  0.00    +0.000 C 
ATOM     11  C2*   A A   1       8.988  -4.019   0.695  1.00  0.00    +0.000 C 
ATOM     12  C3*   A A   1       7.907  -3.135   1.295  1.00  0.00    +0.000 C 
ATOM     13  C4*   A A   1       8.637  -1.822   1.573  1.00  0.00    +0.000 C 
ATOM     14  O4*   A A   1       9.723  -1.735   0.620  1.00  0.00    +0.000 OA
BRANCH  12  15
ATOM     15  O3*   A A   1       6.897  -2.941   0.281  1.00  0.00    +0.000 OA
ATOM     16  H3*   A A   1       7.357  -2.804  -0.567  1.00  0.00    +0.000 HD
ENDBRANCH  12  15
BRANCH  11  17
ATOM     17  O2*   A A   1       8.413  -5.043  -0.118  1.00  0.00    +0.000 OA
ATOM     18  H2*   A A   1       7.484  -4.768  -0.265  1.00  0.00    +0.000 HD
ENDBRANCH  11  17
BRANCH  13  19
ATOM     19  C5*   A A   1       9.211  -1.721   2.991  1.00  0.00    +0.000 C 
BRANCH  19  20
ATOM     20  O5*   A A   1       8.654  -0.617   3.696  1.00  0.00    +0.000 OA
ATOM     21  H5*   A A   1       7.808  -0.915   4.077  1.00  0.00    +0.000 HD
ENDBRANCH  19  20
ENDBRANCH  13  19
ENDBRANCH   7  10
BRANCH   3  22
ATOM     22  N6    A A   1      15.194  -5.677  -0.740  1.00  0.00    +0.000 N 
ATOM     23  H61   A A   1      15.586  -4.781  -0.483  1.00  0.00    +0.000 HD
ATOM     24  H62   A A   1      15.559  -6.128  -1.573  1.00  0.00    +0.000 HD
ENDBRANCH   3  22
TORSDOF 6
ENDMDL
MODEL 5
REMARK VINA RESULT:    -5.551      4.178      5.894
REMARK INTER + INTRA:          -7.024
REMARK INTER:                  -6.544
REMARK INTRA:                  -0.480
REMARK UNBOUND:                -0.175
REMARK  Name = 
REMARK  6 active torsions:
REMARK  status: ('A' for Active; 'I' for Inactive)
REMARK    1  A    between atoms: C6_3  and  N6_19
REMARK    2  A    between atoms: N9_7  and  C1*_10
REMARK    3  A    between atoms: C2*_11  and  O2*_18
REMARK    4  A    between atoms: C3*_12  and  O3*_17
REMARK    5  A    between atoms: C4*_13  and  C5*_15
REMARK    6  A    between atoms: C5*_15  and  O5*_16
REMARK                            x       y       z     vdW  Elec       q    Type
REMARK                         _______ _______ _______ _____ _____    ______ ____
ROOT
ATOM      1  C2    A A   1      12.845  -9.137  -3.862  1.00  0.00    +0.000 A 
ATOM      2  N1    A A   1      13.067  -9.105  -5.195  1.00  0.00    +0.000 NA
ATOM      3  C6    A A   1      13.691  -8.023  -5.714  1.00  0.00    +0.000 A 
ATOM      4  C5    A A   1      14.104  -7.002  -4.840  1.00  0.00    +0.000 A 
ATOM      5  C4    A A   1      13.814  -7.178  -3.497  1.00  0.00    +0.000 A 
ATOM      6  N3    A A   1      13.179  -8.219  -2.933  1.00  0.00    +0.000 NA
ATOM      7  N9    A A   1      14.325  -6.070  -2.879  1.00  0.00    +0.000 N 
ATOM      8  C8    A A   1      14.884  -5.280  -3.850  1.00  0.00    +0.000 A 
ATOM      9  N7    A A   1      14.778  -5.817  -5.049  1.00  0.00    +0.000 NA
ENDROOT
BRANCH   7  10
ATOM     10  C1*   A A   1      14.297  -5.808  -1.456  1.00  0.00    +0.000 C 
ATOM     11  C2*   A A   1      15.308  -4.750  -1.011  1.00  0.00    +0.000 C 
ATOM     12  C3*   A A   1      14.616  -4.174   0.213  1.00  0.00    +0.000 C 
ATOM     13  C4*   A A   1      13.135  -4.236  -0.155  1.00  0.00    +0.000 C 
ATOM     14  O4*   A A   1      12.980  -5.329  -1.090  1.00  0.00    +0.000 OA
BRANCH  12  15
ATOM     15  O3*   A A   1      14.894  -5.057   1.321  1.00  0.00    +0.000 OA
ATOM     16  H3*   A A   1      14.892  -4.518   2.132  1.00  0.00    +0.000 HD
ENDBRANCH  12  15
BRANCH  11  17
ATOM     17  O2*   A A   1      16.588  -5.282  -0.667  1.00  0.00    +0.000 OA
ATOM     18  H2*   A A   1      16.997  -5.550  -1.516  1.00  0.00    +0.000 HD
ENDBRANCH  11  17
BRANCH  13  19
ATOM     19  C5*   A A   1      12.603  -2.952  -0.801  1.00  0.00    +0.000 C 
BRANCH  19  20
ATOM     20  O5*   A A   1      12.209  -3.177  -2.150  1.00  0.00    +0.000 OA
ATOM     21  H5*   A A   1      11.415  -2.635  -2.314  1.00  0.00    +0.000 HD
ENDBRANCH  19  20
ENDBRANCH  13  19
ENDBRANCH   7  10
BRANCH   3  22
ATOM     22  N6    A A   1      13.918  -7.989  -7.085  1.00  0.00    +0.000 N 
ATOM     23  H61   A A   1      13.218  -8.514  -7.592  1.00  0.00    +0.000 HD
ATOM     24  H62   A A   1      14.891  -8.150  -7.325  1.00  0.00    +0.000 HD
ENDBRANCH   3  22
TORSDOF 6
ENDMDL
MODEL 6
REMARK VINA RESULT:    -5.485      4.303      5.920
REMARK INTER + INTRA:          -6.942
REMARK INTER:                  -6.597
REMARK INTRA:                  -0.345
REMARK UNBOUND:                -0.175
REMARK  Name = 
REMARK  6 active torsions:
REMARK  status: ('A' for Active; 'I' for Inactive)
REMARK    1  A    between atoms: C6_3  and  N6_19
REMARK    2  A    between atoms: N9_7  and  C1*_10
REMARK    3  A    between atoms: C2*_11  and  O2*_18
REMARK    4  A    between atoms: C3*_12  and  O3*_17
REMARK    5  A    between atoms: C4*_13  and  C5*_15
REMARK    6  A    between atoms: C5*_15  and  O5*_16
REMARK                            x       y       z     vdW  Elec       q    Type
REMARK                         _______ _______ _______ _____ _____    ______ ____
ROOT
ATOM      1  C2    A A   1      14.887  -5.492  -4.756  1.00  0.00    +0.000 A 
ATOM      2  N1    A A   1      14.587  -6.365  -5.745  1.00  0.00    +0.000 NA
ATOM      3  C6    A A   1      13.935  -7.503  -5.417  1.00  0.00    +0.000 A 
ATOM      4  C5    A A   1      13.575  -7.709  -4.074  1.00  0.00    +0.000 A 
ATOM      5  C4    A A   1      13.943  -6.723  -3.173  1.00  0.00    +0.000 A 
ATOM      6  N3    A A   1      14.609  -5.587  -3.440  1.00  0.00    +0.000 NA
ATOM      7  N9    A A   1      13.470  -7.157  -1.965  1.00  0.00    +0.000 N 
ATOM      8  C8    A A   1      12.855  -8.364  -2.174  1.00  0.00    +0.000 A 
ATOM      9  N7    A A   1      12.890  -8.726  -3.440  1.00  0.00    +0.000 NA
ENDROOT
BRANCH   7  10
ATOM     10  C1*   A A   1      13.582  -6.444  -0.710  1.00  0.00    +0.000 C 
ATOM     11  C2*   A A   1      14.922  -5.726  -0.535  1.00  0.00    +0.000 C 
ATOM     12  C3*   A A   1      14.523  -4.570   0.369  1.00  0.00    +0.000 C 
ATOM     13  C4*   A A   1      13.110  -4.226  -0.099  1.00  0.00    +0.000 C 
ATOM     14  O4*   A A   1      12.540  -5.440  -0.644  1.00  0.00    +0.000 OA
BRANCH  12  15
ATOM     15  O3*   A A   1      14.495  -5.072   1.722  1.00  0.00    +0.000 OA
ATOM     16  H3*   A A   1      14.556  -6.043   1.676  1.00  0.00    +0.000 HD
ENDBRANCH  12  15
BRANCH  11  17
ATOM     17  O2*   A A   1      15.931  -6.527   0.081  1.00  0.00    +0.000 OA
ATOM     18  H2*   A A   1      16.650  -5.905   0.316  1.00  0.00    +0.000 HD
ENDBRANCH  11  17
BRANCH  13  19
ATOM     19  C5*   A A   1      13.061  -3.131  -1.170  1.00  0.00    +0.000 C 
BRANCH  19  20
ATOM     20  O5*   A A   1      12.394  -3.584  -2.342  1.00  0.00    +0.000 OA
ATOM     21  H5*   A A   1      13.064  -3.660  -3.046  1.00  0.00    +0.000 HD
ENDBRANCH  19  20
ENDBRANCH  13  19
ENDBRANCH   7  10
BRANCH   3  22
ATOM     22  N6    A A   1      13.628  -8.401  -6.433  1.00  0.00    +0.000 N 
ATOM     23  H61   A A   1      14.236  -9.209  -6.413  1.00  0.00    +0.000 HD
ATOM     24  H62   A A   1      13.483  -7.944  -7.328  1.00  0.00    +0.000 HD
ENDBRANCH   3  22
TORSDOF 6
ENDMDL
MODEL 7
REMARK VINA RESULT:    -5.315      4.632      6.439
REMARK INTER + INTRA:          -6.733
REMARK INTER:                  -6.272
REMARK INTRA:                  -0.461
REMARK UNBOUND:                -0.175
REMARK  Name = 
REMARK  6 active torsions:
REMARK  status: ('A' for Active; 'I' for Inactive)
REMARK    1  A    between atoms: C6_3  and  N6_19
REMARK    2  A    between atoms: N9_7  and  C1*_10
REMARK    3  A    between atoms: C2*_11  and  O2*_18
REMARK    4  A    between atoms: C3*_12  and  O3*_17
REMARK    5  A    between atoms: C4*_13  and  C5*_15
REMARK    6  A    between atoms: C5*_15  and  O5*_16
REMARK                            x       y       z     vdW  Elec       q    Type
REMARK                         _______ _______ _______ _____ _____    ______ ____
ROOT
ATOM      1  C2    A A   1      13.567 -11.014  -1.227  1.00  0.00    +0.000 A 
ATOM      2  N1    A A   1      13.397 -11.527  -2.467  1.00  0.00    +0.000 NA
ATOM      3  C6    A A   1      13.258 -10.667  -3.501  1.00  0.00    +0.000 A 
ATOM      4  C5    A A   1      13.329  -9.287  -3.243  1.00  0.00    +0.000 A 
ATOM      5  C4    A A   1      13.515  -8.911  -1.923  1.00  0.00    +0.000 A 
ATOM      6  N3    A A   1      13.636  -9.720  -0.857  1.00  0.00    +0.000 NA
ATOM      7  N9    A A   1      13.560  -7.544  -1.950  1.00  0.00    +0.000 N 
ATOM      8  C8    A A   1      13.395  -7.154  -3.254  1.00  0.00    +0.000 A 
ATOM      9  N7    A A   1      13.262  -8.183  -4.067  1.00  0.00    +0.000 NA
ENDROOT
BRANCH   7  10
ATOM     10  C1*   A A   1      13.773  -6.683  -0.806  1.00  0.00    +0.000 C 
ATOM     11  C2*   A A   1      15.157  -6.032  -0.784  1.00  0.00    +0.000 C 
ATOM     12  C3*   A A   1      14.867  -4.747  -0.025  1.00  0.00    +0.000 C 
ATOM     13  C4*   A A   1      13.454  -4.381  -0.473  1.00  0.00    +0.000 C 
ATOM     14  O4*   A A   1      12.792  -5.618  -0.829  1.00  0.00    +0.000 OA
BRANCH  12  15
ATOM     15  O3*   A A   1      14.879  -5.066   1.383  1.00  0.00    +0.000 OA
ATOM     16  H3*   A A   1      14.105  -4.636   1.788  1.00  0.00    +0.000 HD
ENDBRANCH  12  15
BRANCH  11  17
ATOM     17  O2*   A A   1      16.150  -6.806  -0.110  1.00  0.00    +0.000 OA
ATOM     18  H2*   A A   1      16.991  -6.321  -0.240  1.00  0.00    +0.000 HD
ENDBRANCH  11  17
BRANCH  13  19
ATOM     19  C5*   A A   1      13.412  -3.432  -1.677  1.00  0.00    +0.000 C 
BRANCH  19  20
ATOM     20  O5*   A A   1      12.162  -3.512  -2.353  1.00  0.00    +0.000 OA
ATOM     21  H5*   A A   1      12.350  -3.731  -3.284  1.00  0.00    +0.000 HD
ENDBRANCH  19  20
ENDBRANCH  13  19
ENDBRANCH   7  10
BRANCH   3  22
ATOM     22  N6    A A   1      13.081 -11.194  -4.776  1.00  0.00    +0.000 N 
ATOM     23  H61   A A   1      13.492 -12.115  -4.858  1.00  0.00    +0.000 HD
ATOM     24  H62   A A   1      13.284 -10.522  -5.509  1.00  0.00    +0.000 HD
ENDBRANCH   3  22
TORSDOF 6
ENDMDL
MODEL 8
REMARK VINA RESULT:    -5.314      4.008      6.565
REMARK INTER + INTRA:          -6.731
REMARK INTER:                  -6.240
REMARK INTRA:                  -0.491
REMARK UNBOUND:                -0.175
REMARK  Name = 
REMARK  6 active torsions:
REMARK  status: ('A' for Active; 'I' for Inactive)
REMARK    1  A    between atoms: C6_3  and  N6_19
REMARK    2  A    between atoms: N9_7  and  C1*_10
REMARK    3  A    between atoms: C2*_11  and  O2*_18
REMARK    4  A    between atoms: C3*_12  and  O3*_17
REMARK    5  A    between atoms: C4*_13  and  C5*_15
REMARK    6  A    between atoms: C5*_15  and  O5*_16
REMARK                            x       y       z     vdW  Elec       q    Type
REMARK                         _______ _______ _______ _____ _____    ______ ____
ROOT
ATOM      1  C2    A A   1      11.430  -1.359   0.277  1.00  0.00    +0.000 A 
ATOM      2  N1    A A   1      10.169  -1.830   0.403  1.00  0.00    +0.000 NA
ATOM      3  C6    A A   1       9.945  -3.138   0.144  1.00  0.00    +0.000 A 
ATOM      4  C5    A A   1      11.037  -3.949  -0.213  1.00  0.00    +0.000 A 
ATOM      5  C4    A A   1      12.272  -3.327  -0.294  1.00  0.00    +0.000 A 
ATOM      6  N3    A A   1      12.546  -2.031  -0.070  1.00  0.00    +0.000 NA
ATOM      7  N9    A A   1      13.144  -4.323  -0.640  1.00  0.00    +0.000 N 
ATOM      8  C8    A A   1      12.419  -5.481  -0.759  1.00  0.00    +0.000 A 
ATOM      9  N7    A A   1      11.141  -5.295  -0.499  1.00  0.00    +0.000 NA
ENDROOT
BRANCH   7  10
ATOM     10  C1*   A A   1      14.573  -4.171  -0.814  1.00  0.00    +0.000 C 
ATOM     11  C2*   A A   1      15.368  -5.425  -0.443  1.00  0.00    +0.000 C 
ATOM     12  C3*   A A   1      16.581  -5.285  -1.348  1.00  0.00    +0.000 C 
ATOM     13  C4*   A A   1      16.009  -4.644  -2.611  1.00  0.00    +0.000 C 
ATOM     14  O4*   A A   1      14.849  -3.879  -2.205  1.00  0.00    +0.000 OA
BRANCH  12  15
ATOM     15  O3*   A A   1      17.502  -4.381  -0.699  1.00  0.00    +0.000 OA
ATOM     16  H3*   A A   1      18.247  -4.236  -1.308  1.00  0.00    +0.000 HD
ENDBRANCH  12  15
BRANCH  11  17
ATOM     17  O2*   A A   1      15.762  -5.475   0.929  1.00  0.00    +0.000 OA
ATOM     18  H2*   A A   1      15.892  -6.425   1.129  1.00  0.00    +0.000 HD
ENDBRANCH  11  17
BRANCH  13  19
ATOM     19  C5*   A A   1      15.588  -5.654  -3.683  1.00  0.00    +0.000 C 
BRANCH  19  20
ATOM     20  O5*   A A   1      14.301  -5.345  -4.207  1.00  0.00    +0.000 OA
ATOM     21  H5*   A A   1      13.650  -5.539  -3.509  1.00  0.00    +0.000 HD
ENDBRANCH  19  20
ENDBRANCH  13  19
ENDBRANCH   7  10
BRANCH   3  22
ATOM     22  N6    A A   1       8.648  -3.622   0.272  1.00  0.00    +0.000 N 
ATOM     23  H61   A A   1       8.111  -3.077   0.934  1.00  0.00    +0.000 HD
ATOM     24  H62   A A   1       8.614  -4.632   0.358  1.00  0.00    +0.000 HD
ENDBRANCH   3  22
TORSDOF 6
ENDMDL
MODEL 9
REMARK VINA RESULT:    -5.309      4.624      6.950
REMARK INTER + INTRA:          -6.726
REMARK INTER:                  -6.341
REMARK INTRA:                  -0.384
REMARK UNBOUND:                -0.175
REMARK  Name = 
REMARK  6 active torsions:
REMARK  status: ('A' for Active; 'I' for Inactive)
REMARK    1  A    between atoms: C6_3  and  N6_19
REMARK    2  A    between atoms: N9_7  and  C1*_10
REMARK    3  A    between atoms: C2*_11  and  O2*_18
REMARK    4  A    between atoms: C3*_12  and  O3*_17
REMARK    5  A    between atoms: C4*_13  and  C5*_15
REMARK    6  A    between atoms: C5*_15  and  O5*_16
REMARK                            x       y       z     vdW  Elec       q    Type
REMARK                         _______ _______ _______ _____ _____    ______ ____
ROOT
ATOM      1  C2    A A   1      12.815  -9.522  -5.225  1.00  0.00    +0.000 A 
ATOM      2  N1    A A   1      13.020 -10.759  -4.719  1.00  0.00    +0.000 NA
ATOM      3  C6    A A   1      13.384 -10.867  -3.421  1.00  0.00    +0.000 A 
ATOM      4  C5    A A   1      13.501  -9.694  -2.656  1.00  0.00    +0.000 A 
ATOM      5  C4    A A   1      13.252  -8.498  -3.309  1.00  0.00    +0.000 A 
ATOM      6  N3    A A   1      12.910  -8.333  -4.598  1.00  0.00    +0.000 NA
ATOM      7  N9    A A   1      13.419  -7.534  -2.353  1.00  0.00    +0.000 N 
ATOM      8  C8    A A   1      13.763  -8.168  -1.187  1.00  0.00    +0.000 A 
ATOM      9  N7    A A   1      13.812  -9.476  -1.329  1.00  0.00    +0.000 NA
ENDROOT
BRANCH   7  10
ATOM     10  C1*   A A   1      13.234  -6.111  -2.547  1.00  0.00    +0.000 C 
ATOM     11  C2*   A A   1      13.083  -5.333  -1.239  1.00  0.00    +0.000 C 
ATOM     12  C3*   A A   1      13.630  -3.972  -1.639  1.00  0.00    +0.000 C 
ATOM     13  C4*   A A   1      14.743  -4.314  -2.627  1.00  0.00    +0.000 C 
ATOM     14  O4*   A A   1      14.389  -5.576  -3.239  1.00  0.00    +0.000 OA
BRANCH  12  15
ATOM     15  O3*   A A   1      12.566  -3.260  -2.307  1.00  0.00    +0.000 OA
ATOM     16  H3*   A A   1      12.936  -2.420  -2.633  1.00  0.00    +0.000 HD
ENDBRANCH  12  15
BRANCH  11  17
ATOM     17  O2*   A A   1      11.734  -5.224  -0.783  1.00  0.00    +0.000 OA
ATOM     18  H2*   A A   1      11.681  -4.357  -0.330  1.00  0.00    +0.000 HD
ENDBRANCH  11  17
BRANCH  13  19
ATOM     19  C5*   A A   1      16.127  -4.446  -1.982  1.00  0.00    +0.000 C 
BRANCH  19  20
ATOM     20  O5*   A A   1      17.163  -4.274  -2.942  1.00  0.00    +0.000 OA
ATOM     21  H5*   A A   1      16.871  -3.581  -3.562  1.00  0.00    +0.000 HD
ENDBRANCH  19  20
ENDBRANCH  13  19
ENDBRANCH   7  10
BRANCH   3  22
ATOM     22  N6    A A   1      13.597 -12.139  -2.901  1.00  0.00    +0.000 N 
ATOM     23  H61   A A   1      12.787 -12.475  -2.397  1.00  0.00    +0.000 HD
ATOM     24  H62   A A   1      14.502 -12.232  -2.452  1.00  0.00    +0.000 HD
ENDBRANCH   3  22
TORSDOF 6
ENDMDL
