MODEL 1
REMARK VINA RESULT:    -6.291      0.000      0.000
REMARK INTER + INTRA:          -7.989
REMARK INTER:                  -7.762
REMARK INTRA:                  -0.227
REMARK UNBOUND:                -0.227
REMARK  Name = 
REMARK  6 active torsions:
REMARK  status: ('A' for Active; 'I' for Inactive)
REMARK    1  A    between atoms: C6_3  and  N6_19
REMARK    2  A    between atoms: N9_7  and  C1*_10
REMARK    3  A    between atoms: C2*_11  and  O2*_18
REMARK    4  A    between atoms: C3*_12  and  O3*_17
REMARK    5  A    between atoms: C4*_13  and  C5*_15
REMARK    6  A    between atoms: C5*_15  and  O5*_16
REMARK                            x       y       z     vdW  Elec       q    Type
REMARK                         _______ _______ _______ _____ _____    ______ ____
ROOT
ATOM      1  C2    A A   1      10.081   1.090  25.798  1.00  0.00    +0.000 A 
ATOM      2  N1    A A   1       9.058   0.345  26.275  1.00  0.00    +0.000 NA
ATOM      3  C6    A A   1       8.957  -0.939  25.863  1.00  0.00    +0.000 A 
ATOM      4  C5    A A   1       9.933  -1.444  24.987  1.00  0.00    +0.000 A 
ATOM      5  C4    A A   1      10.927  -0.564  24.590  1.00  0.00    +0.000 A 
ATOM      6  N3    A A   1      11.062   0.724  24.949  1.00  0.00    +0.000 NA
ATOM      7  N9    A A   1      11.737  -1.297  23.768  1.00  0.00    +0.000 N 
ATOM      8  C8    A A   1      11.211  -2.561  23.694  1.00  0.00    +0.000 A 
ATOM      9  N7    A A   1      10.124  -2.690  24.427  1.00  0.00    +0.000 NA
ENDROOT
BRANCH   7  10
ATOM     10  C1*   A A   1      12.942  -0.818  23.124  1.00  0.00    +0.000 C 
ATOM     11  C2*   A A   1      13.587  -1.849  22.196  1.00  0.00    +0.000 C 
ATOM     12  C3*   A A   1      14.276  -0.947  21.185  1.00  0.00    +0.000 C 
ATOM     13  C4*   A A   1      13.325   0.241  21.064  1.00  0.00    +0.000 C 
ATOM     14  O4*   A A   1      12.618   0.344  22.323  1.00  0.00    +0.000 OA
BRANCH  12  15
ATOM     15  O3*   A A   1      15.531  -0.529  21.765  1.00  0.00    +0.000 OA
ATOM     16  H3*   A A   1      15.325   0.078  22.498  1.00  0.00    +0.000 HD
ENDBRANCH  12  15
BRANCH  11  17
ATOM     17  O2*   A A   1      14.534  -2.699  22.845  1.00  0.00    +0.000 OA
ATOM     18  H2*   A A   1      14.935  -3.237  22.131  1.00  0.00    +0.000 HD
ENDBRANCH  11  17
BRANCH  13  19
ATOM     19  C5*   A A   1      12.302   0.104  19.930  1.00  0.00    +0.000 C 
BRANCH  19  20
ATOM     20  O5*   A A   1      12.784  -0.751  18.900  1.00  0.00    +0.000 OA
ATOM     21  H5*   A A   1      12.080  -1.397  18.707  1.00  0.00    +0.000 HD
ENDBRANCH  19  20
ENDBRANCH  13  19
ENDBRANCH   7  10
BRANCH   3  22
ATOM     22  N6    A A   1       7.904  -1.705  26.352  1.00  0.00    +0.000 N 
ATOM     23  H61   A A   1       8.180  -2.243  27.163  1.00  0.00    +0.000 HD
ATOM     24  H62   A A   1       7.398  -2.189  25.618  1.00  0.00    +0.000 HD
ENDBRANCH   3  22
TORSDOF 6
ENDMDL
MODEL 2
REMARK VINA RESULT:    -5.730      3.052      5.747
REMARK INTER + INTRA:          -7.297
REMARK INTER:                  -7.055
REMARK INTRA:                  -0.242
REMARK UNBOUND:                -0.227
REMARK  Name = 
REMARK  6 active torsions:
REMARK  status: ('A' for Active; 'I' for Inactive)
REMARK    1  A    between atoms: C6_3  and  N6_19
REMARK    2  A    between atoms: N9_7  and  C1*_10
REMARK    3  A    between atoms: C2*_11  and  O2*_18
REMARK    4  A    between atoms: C3*_12  and  O3*_17
REMARK    5  A    between atoms: C4*_13  and  C5*_15
REMARK    6  A    between atoms: C5*_15  and  O5*_16
REMARK                            x       y       z     vdW  Elec       q    Type
REMARK                         _______ _______ _______ _____ _____    ______ ____
ROOT
ATOM      1  C2    A A   1      13.183   0.790  21.761  1.00  0.00    +0.000 A 
ATOM      2  N1    A A   1      13.496  -0.049  20.748  1.00  0.00    +0.000 NA
ATOM      3  C6    A A   1      13.222  -1.365  20.900  1.00  0.00    +0.000 A 
ATOM      4  C5    A A   1      12.600  -1.790  22.087  1.00  0.00    +0.000 A 
ATOM      5  C4    A A   1      12.332  -0.813  23.032  1.00  0.00    +0.000 A 
ATOM      6  N3    A A   1      12.603   0.500  22.943  1.00  0.00    +0.000 NA
ATOM      7  N9    A A   1      11.727  -1.479  24.062  1.00  0.00    +0.000 N 
ATOM      8  C8    A A   1      11.659  -2.803  23.713  1.00  0.00    +0.000 A 
ATOM      9  N7    A A   1      12.169  -3.027  22.519  1.00  0.00    +0.000 NA
ENDROOT
BRANCH   7  10
ATOM     10  C1*   A A   1      11.228  -0.875  25.280  1.00  0.00    +0.000 C 
ATOM     11  C2*   A A   1      10.289   0.307  25.033  1.00  0.00    +0.000 C 
ATOM     12  C3*   A A   1       9.409   0.251  26.271  1.00  0.00    +0.000 C 
ATOM     13  C4*   A A   1       9.291  -1.245  26.554  1.00  0.00    +0.000 C 
ATOM     14  O4*   A A   1      10.486  -1.869  26.029  1.00  0.00    +0.000 OA
BRANCH  12  15
ATOM     15  O3*   A A   1      10.126   0.908  27.339  1.00  0.00    +0.000 OA
ATOM     16  H3*   A A   1      10.696   0.241  27.762  1.00  0.00    +0.000 HD
ENDBRANCH  12  15
BRANCH  11  17
ATOM     17  O2*   A A   1      10.956   1.566  24.941  1.00  0.00    +0.000 OA
ATOM     18  H2*   A A   1      10.329   2.221  25.312  1.00  0.00    +0.000 HD
ENDBRANCH  11  17
BRANCH  13  19
ATOM     19  C5*   A A   1       8.065  -1.903  25.911  1.00  0.00    +0.000 C 
BRANCH  19  20
ATOM     20  O5*   A A   1       6.866  -1.223  26.268  1.00  0.00    +0.000 OA
ATOM     21  H5*   A A   1       7.106  -0.299  26.465  1.00  0.00    +0.000 HD
ENDBRANCH  19  20
ENDBRANCH  13  19
ENDBRANCH   7  10
BRANCH   3  22
ATOM     22  N6    A A   1      13.545  -2.228  19.859  1.00  0.00    +0.000 N 
ATOM     23  H61   A A   1      12.994  -2.038  19.033  1.00  0.00    +0.000 HD
ATOM     24  H62   A A   1      13.620  -3.194  20.161  1.00  0.00    +0.000 HD
ENDBRANCH   3  22
TORSDOF 6
ENDMDL
MODEL 3
REMARK VINA RESULT:    -5.699      3.269      5.669
REMARK INTER + INTRA:          -7.259
REMARK INTER:                  -6.832
REMARK INTRA:                  -0.427
REMARK UNBOUND:                -0.227
REMARK  Name = 
REMARK  6 active torsions:
REMARK  status: ('A' for Active; 'I' for Inactive)
REMARK    1  A    between atoms: C6_3  and  N6_19
REMARK    2  A    between atoms: N9_7  and  C1*_10
REMARK    3  A    between atoms: C2*_11  and  O2*_18
REMARK    4  A    between atoms: C3*_12  and  O3*_17
REMARK    5  A    between atoms: C4*_13  and  C5*_15
REMARK    6  A    between atoms: C5*_15  and  O5*_16
REMARK                            x       y       z     vdW  Elec       q    Type
REMARK                         _______ _______ _______ _____ _____    ______ ____
ROOT
ATOM      1  C2    A A   1      12.716   2.859  20.602  1.00  0.00    +0.000 A 
ATOM      2  N1    A A   1      12.705   2.820  19.250  1.00  0.00    +0.000 NA
ATOM      3  C6    A A   1      12.742   1.611  18.645  1.00  0.00    +0.000 A 
ATOM      4  C5    A A   1      12.760   0.458  19.449  1.00  0.00    +0.000 A 
ATOM      5  C4    A A   1      12.760   0.655  20.820  1.00  0.00    +0.000 A 
ATOM      6  N3    A A   1      12.747   1.830  21.471  1.00  0.00    +0.000 NA
ATOM      7  N9    A A   1      12.767  -0.604  21.355  1.00  0.00    +0.000 N 
ATOM      8  C8    A A   1      12.778  -1.494  20.312  1.00  0.00    +0.000 A 
ATOM      9  N7    A A   1      12.764  -0.888  19.143  1.00  0.00    +0.000 NA
ENDROOT
BRANCH   7  10
ATOM     10  C1*   A A   1      12.738  -0.920  22.768  1.00  0.00    +0.000 C 
ATOM     11  C2*   A A   1      11.322  -1.069  23.329  1.00  0.00    +0.000 C 
ATOM     12  C3*   A A   1      11.557  -2.047  24.469  1.00  0.00    +0.000 C 
ATOM     13  C4*   A A   1      12.661  -2.956  23.935  1.00  0.00    +0.000 C 
ATOM     14  O4*   A A   1      13.424  -2.177  22.983  1.00  0.00    +0.000 OA
BRANCH  12  15
ATOM     15  O3*   A A   1      12.037  -1.285  25.598  1.00  0.00    +0.000 OA
ATOM     16  H3*   A A   1      12.280  -0.400  25.271  1.00  0.00    +0.000 HD
ENDBRANCH  12  15
BRANCH  11  17
ATOM     17  O2*   A A   1      10.761   0.151  23.814  1.00  0.00    +0.000 OA
ATOM     18  H2*   A A   1      11.341   0.861  23.468  1.00  0.00    +0.000 HD
ENDBRANCH  11  17
BRANCH  13  19
ATOM     19  C5*   A A   1      12.141  -4.219  23.238  1.00  0.00    +0.000 C 
BRANCH  19  20
ATOM     20  O5*   A A   1      12.895  -5.365  23.617  1.00  0.00    +0.000 OA
ATOM     21  H5*   A A   1      12.677  -5.561  24.547  1.00  0.00    +0.000 HD
ENDBRANCH  19  20
ENDBRANCH  13  19
ENDBRANCH   7  10
BRANCH   3  22
ATOM     22  N6    A A   1      12.732   1.570  17.256  1.00  0.00    +0.000 N 
ATOM     23  H61   A A   1      11.886   1.976  16.877  1.00  0.00    +0.000 HD
ATOM     24  H62   A A   1      13.028   0.672  16.888  1.00  0.00    +0.000 HD
ENDBRANCH   3  22
TORSDOF 6
ENDMDL
MODEL 4
REMARK VINA RESULT:    -5.536      3.346      5.912
REMARK INTER + INTRA:          -7.058
REMARK INTER:                  -6.607
REMARK INTRA:                  -0.451
REMARK UNBOUND:                -0.227
REMARK  Name = 
REMARK  6 active torsions:
REMARK  status: ('A' for Active; 'I' for Inactive)
REMARK    1  A    between atoms: C6_3  and  N6_19
REMARK    2  A    between atoms: N9_7  and  C1*_10
REMARK    3  A    between atoms: C2*_11  and  O2*_18
REMARK    4  A    between atoms: C3*_12  and  O3*_17
REMARK    5  A    between atoms: C4*_13  and  C5*_15
REMARK    6  A    between atoms: C5*_15  and  O5*_16
REMARK                            x       y       z     vdW  Elec       q    Type
REMARK                         _______ _______ _______ _____ _____    ______ ____
ROOT
ATOM      1  C2    A A   1      12.723   0.972  17.721  1.00  0.00    +0.000 A 
ATOM      2  N1    A A   1      12.812   2.321  17.680  1.00  0.00    +0.000 NA
ATOM      3  C6    A A   1      12.847   2.996  18.851  1.00  0.00    +0.000 A 
ATOM      4  C5    A A   1      12.820   2.263  20.050  1.00  0.00    +0.000 A 
ATOM      5  C4    A A   1      12.736   0.885  19.935  1.00  0.00    +0.000 A 
ATOM      6  N3    A A   1      12.676   0.167  18.801  1.00  0.00    +0.000 NA
ATOM      7  N9    A A   1      12.740   0.425  21.223  1.00  0.00    +0.000 N 
ATOM      8  C8    A A   1      12.816   1.516  22.049  1.00  0.00    +0.000 A 
ATOM      9  N7    A A   1      12.877   2.646  21.375  1.00  0.00    +0.000 NA
ENDROOT
BRANCH   7  10
ATOM     10  C1*   A A   1      12.699  -0.966  21.623  1.00  0.00    +0.000 C 
ATOM     11  C2*   A A   1      13.790  -1.343  22.627  1.00  0.00    +0.000 C 
ATOM     12  C3*   A A   1      13.121  -2.484  23.377  1.00  0.00    +0.000 C 
ATOM     13  C4*   A A   1      11.650  -2.073  23.408  1.00  0.00    +0.000 C 
ATOM     14  O4*   A A   1      11.422  -1.240  22.247  1.00  0.00    +0.000 OA
BRANCH  12  15
ATOM     15  O3*   A A   1      13.291  -3.679  22.585  1.00  0.00    +0.000 OA
ATOM     16  H3*   A A   1      12.457  -3.833  22.106  1.00  0.00    +0.000 HD
ENDBRANCH  12  15
BRANCH  11  17
ATOM     17  O2*   A A   1      15.008  -1.779  22.023  1.00  0.00    +0.000 OA
ATOM     18  H2*   A A   1      14.884  -1.646  21.060  1.00  0.00    +0.000 HD
ENDBRANCH  11  17
BRANCH  13  19
ATOM     19  C5*   A A   1      11.251  -1.292  24.665  1.00  0.00    +0.000 C 
BRANCH  19  20
ATOM     20  O5*   A A   1      10.179  -0.394  24.396  1.00  0.00    +0.000 OA
ATOM     21  H5*   A A   1       9.629  -0.799  23.701  1.00  0.00    +0.000 HD
ENDBRANCH  19  20
ENDBRANCH  13  19
ENDBRANCH   7  10
BRANCH   3  22
ATOM     22  N6    A A   1      12.937   4.383  18.808  1.00  0.00    +0.000 N 
ATOM     23  H61   A A   1      13.838   4.687  18.465  1.00  0.00    +0.000 HD
ATOM     24  H62   A A   1      12.581   4.824  19.650  1.00  0.00    +0.000 HD
ENDBRANCH   3  22
TORSDOF 6
ENDMDL
MODEL 5
REMARK VINA RESULT:    -5.378      2.660      4.412
REMARK INTER + INTRA:          -6.863
REMARK INTER:                  -6.342
REMARK INTRA:                  -0.521
REMARK UNBOUND:                -0.227
REMARK  Name = 
REMARK  6 active torsions:
REMARK  status: ('A' for Active; 'I' for Inactive)
REMARK    1  A    between atoms: C6_3  and  N6_19
REMARK    2  A    between atoms: N9_7  and  C1*_10
REMARK    3  A    between atoms: C2*_11  and  O2*_18
REMARK    4  A    between atoms: C3*_12  and  O3*_17
REMARK    5  A    between atoms: C4*_13  and  C5*_15
REMARK    6  A    between atoms: C5*_15  and  O5*_16
REMARK                            x       y       z     vdW  Elec       q    Type
REMARK                         _______ _______ _______ _____ _____    ______ ____
ROOT
ATOM      1  C2    A A   1      12.798  -2.765  21.799  1.00  0.00    +0.000 A 
ATOM      2  N1    A A   1      12.250  -3.049  23.002  1.00  0.00    +0.000 NA
ATOM      3  C6    A A   1      11.866  -2.018  23.788  1.00  0.00    +0.000 A 
ATOM      4  C5    A A   1      12.028  -0.707  23.306  1.00  0.00    +0.000 A 
ATOM      5  C4    A A   1      12.598  -0.573  22.051  1.00  0.00    +0.000 A 
ATOM      6  N3    A A   1      13.016  -1.559  21.239  1.00  0.00    +0.000 NA
ATOM      7  N9    A A   1      12.628   0.775  21.821  1.00  0.00    +0.000 N 
ATOM      8  C8    A A   1      12.095   1.391  22.924  1.00  0.00    +0.000 A 
ATOM      9  N7    A A   1      11.711   0.525  23.839  1.00  0.00    +0.000 NA
ENDROOT
BRANCH   7  10
ATOM     10  C1*   A A   1      13.112   1.416  20.616  1.00  0.00    +0.000 C 
ATOM     11  C2*   A A   1      12.190   1.218  19.410  1.00  0.00    +0.000 C 
ATOM     12  C3*   A A   1      12.479   2.476  18.608  1.00  0.00    +0.000 C 
ATOM     13  C4*   A A   1      12.722   3.534  19.682  1.00  0.00    +0.000 C 
ATOM     14  O4*   A A   1      13.219   2.841  20.851  1.00  0.00    +0.000 OA
BRANCH  12  15
ATOM     15  O3*   A A   1      13.689   2.239  17.855  1.00  0.00    +0.000 OA
ATOM     16  H3*   A A   1      13.983   1.332  18.054  1.00  0.00    +0.000 HD
ENDBRANCH  12  15
BRANCH  11  17
ATOM     17  O2*   A A   1      12.482   0.049  18.644  1.00  0.00    +0.000 OA
ATOM     18  H2*   A A   1      13.260  -0.360  19.078  1.00  0.00    +0.000 HD
ENDBRANCH  11  17
BRANCH  13  19
ATOM     19  C5*   A A   1      11.467   4.324  20.070  1.00  0.00    +0.000 C 
BRANCH  19  20
ATOM     20  O5*   A A   1      11.783   5.676  20.381  1.00  0.00    +0.000 OA
ATOM     21  H5*   A A   1      11.346   5.889  21.226  1.00  0.00    +0.000 HD
ENDBRANCH  19  20
ENDBRANCH  13  19
ENDBRANCH   7  10
BRANCH   3  22
ATOM     22  N6    A A   1      11.303  -2.309  25.026  1.00  0.00    +0.000 N 
ATOM     23  H61   A A   1      10.557  -2.987  24.946  1.00  0.00    +0.000 HD
ATOM     24  H62   A A   1      11.125  -1.477  25.580  1.00  0.00    +0.000 HD
ENDBRANCH   3  22
TORSDOF 6
ENDMDL
MODEL 6
REMARK VINA RESULT:    -5.102      4.053      5.908
REMARK INTER + INTRA:          -6.522
REMARK INTER:                  -6.209
REMARK INTRA:                  -0.313
REMARK UNBOUND:                -0.227
REMARK  Name = 
REMARK  6 active torsions:
REMARK  status: ('A' for Active; 'I' for Inactive)
REMARK    1  A    between atoms: C6_3  and  N6_19
REMARK    2  A    between atoms: N9_7  and  C1*_10
REMARK    3  A    between atoms: C2*_11  and  O2*_18
REMARK    4  A    between atoms: C3*_12  and  O3*_17
REMARK    5  A    between atoms: C4*_13  and  C5*_15
REMARK    6  A    between atoms: C5*_15  and  O5*_16
REMARK                            x       y       z     vdW  Elec       q    Type
REMARK                         _______ _______ _______ _____ _____    ______ ____
ROOT
ATOM      1  C2    A A   1      13.153   4.068  20.303  1.00  0.00    +0.000 A 
ATOM      2  N1    A A   1      12.896   4.273  18.992  1.00  0.00    +0.000 NA
ATOM      3  C6    A A   1      12.681   3.193  18.206  1.00  0.00    +0.000 A 
ATOM      4  C5    A A   1      12.706   1.917  18.795  1.00  0.00    +0.000 A 
ATOM      5  C4    A A   1      12.975   1.865  20.153  1.00  0.00    +0.000 A 
ATOM      6  N3    A A   1      13.217   2.901  20.974  1.00  0.00    +0.000 NA
ATOM      7  N9    A A   1      12.928   0.535  20.469  1.00  0.00    +0.000 N 
ATOM      8  C8    A A   1      12.646  -0.151  19.316  1.00  0.00    +0.000 A 
ATOM      9  N7    A A   1      12.495   0.653  18.284  1.00  0.00    +0.000 NA
ENDROOT
BRANCH   7  10
ATOM     10  C1*   A A   1      13.115  -0.026  21.791  1.00  0.00    +0.000 C 
ATOM     11  C2*   A A   1      12.867  -1.535  21.852  1.00  0.00    +0.000 C 
ATOM     12  C3*   A A   1      13.779  -1.938  23.000  1.00  0.00    +0.000 C 
ATOM     13  C4*   A A   1      14.971  -0.995  22.853  1.00  0.00    +0.000 C 
ATOM     14  O4*   A A   1      14.481   0.206  22.212  1.00  0.00    +0.000 OA
BRANCH  12  15
ATOM     15  O3*   A A   1      13.072  -1.666  24.228  1.00  0.00    +0.000 OA
ATOM     16  H3*   A A   1      12.140  -1.915  24.091  1.00  0.00    +0.000 HD
ENDBRANCH  12  15
BRANCH  11  17
ATOM     17  O2*   A A   1      11.512  -1.888  22.133  1.00  0.00    +0.000 OA
ATOM     18  H2*   A A   1      11.225  -1.277  22.843  1.00  0.00    +0.000 HD
ENDBRANCH  11  17
BRANCH  13  19
ATOM     19  C5*   A A   1      16.119  -1.570  22.016  1.00  0.00    +0.000 C 
BRANCH  19  20
ATOM     20  O5*   A A   1      16.544  -2.832  22.520  1.00  0.00    +0.000 OA
ATOM     21  H5*   A A   1      16.676  -3.420  21.754  1.00  0.00    +0.000 HD
ENDBRANCH  19  20
ENDBRANCH  13  19
ENDBRANCH   7  10
BRANCH   3  22
ATOM     22  N6    A A   1      12.418   3.403  16.857  1.00  0.00    +0.000 N 
ATOM     23  H61   A A   1      12.267   2.532  16.367  1.00  0.00    +0.000 HD
ATOM     24  H62   A A   1      13.049   4.077  16.435  1.00  0.00    +0.000 HD
ENDBRANCH   3  22
TORSDOF 6
ENDMDL
MODEL 7
REMARK VINA RESULT:    -5.101      1.292      2.361
REMARK INTER + INTRA:          -6.522
REMARK INTER:                  -6.821
REMARK INTRA:                   0.300
REMARK UNBOUND:                -0.227
REMARK  Name = 
REMARK  6 active torsions:
REMARK  status: ('A' for Active; 'I' for Inactive)
REMARK    1  A    between atoms: C6_3  and  N6_19
REMARK    2  A    between atoms: N9_7  and  C1*_10
REMARK    3  A    between atoms: C2*_11  and  O2*_18
REMARK    4  A    between atoms: C3*_12  and  O3*_17
REMARK    5  A    between atoms: C4*_13  and  C5*_15
REMARK    6  A    between atoms: C5*_15  and  O5*_16
REMARK                            x       y       z     vdW  Elec       q    Type
REMARK                         _______ _______ _______ _____ _____    ______ ____
ROOT
ATOM      1  C2    A A   1      10.540   1.165  25.518  1.00  0.00    +0.000 A 
ATOM      2  N1    A A   1       9.858   0.432  26.427  1.00  0.00    +0.000 NA
ATOM      3  C6    A A   1       9.783  -0.906  26.244  1.00  0.00    +0.000 A 
ATOM      4  C5    A A   1      10.441  -1.471  25.138  1.00  0.00    +0.000 A 
ATOM      5  C4    A A   1      11.107  -0.595  24.296  1.00  0.00    +0.000 A 
ATOM      6  N3    A A   1      11.193   0.740  24.418  1.00  0.00    +0.000 NA
ATOM      7  N9    A A   1      11.659  -1.389  23.329  1.00  0.00    +0.000 N 
ATOM      8  C8    A A   1      11.308  -2.684  23.612  1.00  0.00    +0.000 A 
ATOM      9  N7    A A   1      10.579  -2.774  24.705  1.00  0.00    +0.000 NA
ENDROOT
BRANCH   7  10
ATOM     10  C1*   A A   1      12.484  -0.932  22.231  1.00  0.00    +0.000 C 
ATOM     11  C2*   A A   1      13.209   0.384  22.521  1.00  0.00    +0.000 C 
ATOM     12  C3*   A A   1      14.445   0.241  21.649  1.00  0.00    +0.000 C 
ATOM     13  C4*   A A   1      14.751  -1.254  21.712  1.00  0.00    +0.000 C 
ATOM     14  O4*   A A   1      13.495  -1.931  21.954  1.00  0.00    +0.000 OA
BRANCH  12  15
ATOM     15  O3*   A A   1      14.072   0.621  20.307  1.00  0.00    +0.000 OA
ATOM     16  H3*   A A   1      14.788   0.334  19.712  1.00  0.00    +0.000 HD
ENDBRANCH  12  15
BRANCH  11  17
ATOM     17  O2*   A A   1      12.463   1.547  22.158  1.00  0.00    +0.000 OA
ATOM     18  H2*   A A   1      11.827   1.689  22.889  1.00  0.00    +0.000 HD
ENDBRANCH  11  17
BRANCH  13  19
ATOM     19  C5*   A A   1      15.743  -1.638  22.816  1.00  0.00    +0.000 C 
BRANCH  19  20
ATOM     20  O5*   A A   1      16.540  -2.753  22.429  1.00  0.00    +0.000 OA
ATOM     21  H5*   A A   1      16.224  -3.045  21.554  1.00  0.00    +0.000 HD
ENDBRANCH  19  20
ENDBRANCH  13  19
ENDBRANCH   7  10
BRANCH   3  22
ATOM     22  N6    A A   1       9.081  -1.659  27.179  1.00  0.00    +0.000 N 
ATOM     23  H61   A A   1       8.385  -1.104  27.657  1.00  0.00    +0.000 HD
ATOM     24  H62   A A   1       9.688  -2.242  27.746  1.00  0.00    +0.000 HD
ENDBRANCH   3  22
TORSDOF 6
ENDMDL
MODEL 8
REMARK VINA RESULT:    -4.911      3.362      5.474
REMARK INTER + INTRA:          -6.286
REMARK INTER:                  -6.220
REMARK INTRA:                  -0.066
REMARK UNBOUND:                -0.227
REMARK  Name = 
REMARK  6 active torsions:
REMARK  status: ('A' for Active; 'I' for Inactive)
REMARK    1  A    between atoms: C6_3  and  N6_19
REMARK    2  A    between atoms: N9_7  and  C1*_10
REMARK    3  A    between atoms: C2*_11  and  O2*_18
REMARK    4  A    between atoms: C3*_12  and  O3*_17
REMARK    5  A    between atoms: C4*_13  and  C5*_15
REMARK    6  A    between atoms: C5*_15  and  O5*_16
REMARK                            x       y       z     vdW  Elec       q    Type
REMARK                         _______ _______ _______ _____ _____    ______ ____
ROOT
ATOM      1  C2    A A   1      12.885   2.856  21.327  1.00  0.00    +0.000 A 
ATOM      2  N1    A A   1      12.607   3.554  20.203  1.00  0.00    +0.000 NA
ATOM      3  C6    A A   1      12.481   2.872  19.042  1.00  0.00    +0.000 A 
ATOM      4  C5    A A   1      12.615   1.473  19.066  1.00  0.00    +0.000 A 
ATOM      5  C4    A A   1      12.892   0.896  20.294  1.00  0.00    +0.000 A 
ATOM      6  N3    A A   1      13.049   1.526  21.470  1.00  0.00    +0.000 NA
ATOM      7  N9    A A   1      12.958  -0.447  20.044  1.00  0.00    +0.000 N 
ATOM      8  C8    A A   1      12.731  -0.627  18.704  1.00  0.00    +0.000 A 
ATOM      9  N7    A A   1      12.510   0.512  18.081  1.00  0.00    +0.000 NA
ENDROOT
BRANCH   7  10
ATOM     10  C1*   A A   1      13.196  -1.479  21.032  1.00  0.00    +0.000 C 
ATOM     11  C2*   A A   1      14.280  -1.112  22.047  1.00  0.00    +0.000 C 
ATOM     12  C3*   A A   1      13.830  -1.907  23.262  1.00  0.00    +0.000 C 
ATOM     13  C4*   A A   1      12.306  -1.861  23.171  1.00  0.00    +0.000 C 
ATOM     14  O4*   A A   1      11.973  -1.715  21.770  1.00  0.00    +0.000 OA
BRANCH  12  15
ATOM     15  O3*   A A   1      14.302  -3.260  23.090  1.00  0.00    +0.000 OA
ATOM     16  H3*   A A   1      13.556  -3.790  22.757  1.00  0.00    +0.000 HD
ENDBRANCH  12  15
BRANCH  11  17
ATOM     17  O2*   A A   1      15.597  -1.494  21.650  1.00  0.00    +0.000 OA
ATOM     18  H2*   A A   1      16.038  -0.663  21.374  1.00  0.00    +0.000 HD
ENDBRANCH  11  17
BRANCH  13  19
ATOM     19  C5*   A A   1      11.673  -0.705  23.954  1.00  0.00    +0.000 C 
BRANCH  19  20
ATOM     20  O5*   A A   1      10.275  -0.907  24.132  1.00  0.00    +0.000 OA
ATOM     21  H5*   A A   1       9.838  -0.047  23.992  1.00  0.00    +0.000 HD
ENDBRANCH  19  20
ENDBRANCH  13  19
ENDBRANCH   7  10
BRANCH   3  22
ATOM     22  N6    A A   1      12.197   3.589  17.885  1.00  0.00    +0.000 N 
ATOM     23  H61   A A   1      12.515   3.103  17.058  1.00  0.00    +0.000 HD
ATOM     24  H62   A A   1      12.427   4.574  17.969  1.00  0.00    +0.000 HD
ENDBRANCH   3  22
TORSDOF 6
ENDMDL
MODEL 9
REMARK VINA RESULT:    -3.668      3.066      4.524
REMARK INTER + INTRA:          -4.753
REMARK INTER:                  -4.354
REMARK INTRA:                  -0.400
REMARK UNBOUND:                -0.227
REMARK  Name = 
REMARK  6 active torsions:
REMARK  status: ('A' for Active; 'I' for Inactive)
REMARK    1  A    between atoms: C6_3  and  N6_19
REMARK    2  A    between atoms: N9_7  and  C1*_10
REMARK    3  A    between atoms: C2*_11  and  O2*_18
REMARK    4  A    between atoms: C3*_12  and  O3*_17
REMARK    5  A    between atoms: C4*_13  and  C5*_15
REMARK    6  A    between atoms: C5*_15  and  O5*_16
REMARK                            x       y       z     vdW  Elec       q    Type
REMARK                         _______ _______ _______ _____ _____    ______ ____
ROOT
ATOM      1  C2    A A   1      11.477  -0.271  24.140  1.00  0.00    +0.000 A 
ATOM      2  N1    A A   1      11.713  -1.599  24.055  1.00  0.00    +0.000 NA
ATOM      3  C6    A A   1      12.271  -2.079  22.921  1.00  0.00    +0.000 A 
ATOM      4  C5    A A   1      12.605  -1.171  21.900  1.00  0.00    +0.000 A 
ATOM      5  C4    A A   1      12.310   0.162  22.133  1.00  0.00    +0.000 A 
ATOM      6  N3    A A   1      11.737   0.688  23.229  1.00  0.00    +0.000 NA
ATOM      7  N9    A A   1      12.739   0.817  21.012  1.00  0.00    +0.000 N 
ATOM      8  C8    A A   1      13.258  -0.123  20.160  1.00  0.00    +0.000 A 
ATOM      9  N7    A A   1      13.203  -1.337  20.668  1.00  0.00    +0.000 NA
ENDROOT
BRANCH   7  10
ATOM     10  C1*   A A   1      12.676   2.247  20.793  1.00  0.00    +0.000 C 
ATOM     11  C2*   A A   1      13.835   2.787  19.953  1.00  0.00    +0.000 C 
ATOM     12  C3*   A A   1      13.188   3.996  19.297  1.00  0.00    +0.000 C 
ATOM     13  C4*   A A   1      11.745   3.548  19.075  1.00  0.00    +0.000 C 
ATOM     14  O4*   A A   1      11.449   2.563  20.092  1.00  0.00    +0.000 OA
BRANCH  12  15
ATOM     15  O3*   A A   1      13.236   5.080  20.250  1.00  0.00    +0.000 OA
ATOM     16  H3*   A A   1      13.605   4.725  21.078  1.00  0.00    +0.000 HD
ENDBRANCH  12  15
BRANCH  11  17
ATOM     17  O2*   A A   1      14.975   3.175  20.721  1.00  0.00    +0.000 OA
ATOM     18  H2*   A A   1      14.647   3.848  21.353  1.00  0.00    +0.000 HD
ENDBRANCH  11  17
BRANCH  13  19
ATOM     19  C5*   A A   1      11.493   2.929  17.695  1.00  0.00    +0.000 C 
BRANCH  19  20
ATOM     20  O5*   A A   1      11.602   3.903  16.664  1.00  0.00    +0.000 OA
ATOM     21  H5*   A A   1      11.036   4.656  16.915  1.00  0.00    +0.000 HD
ENDBRANCH  19  20
ENDBRANCH  13  19
ENDBRANCH   7  10
BRANCH   3  22
ATOM     22  N6    A A   1      12.514  -3.445  22.833  1.00  0.00    +0.000 N 
ATOM     23  H61   A A   1      13.388  -3.639  22.364  1.00  0.00    +0.000 HD
ATOM     24  H62   A A   1      11.696  -3.969  22.538  1.00  0.00    +0.000 HD
ENDBRANCH   3  22
TORSDOF 6
ENDMDL
