REMARK  Name = 
REMARK  4 active torsions:
REMARK  status: ('A' for Active; 'I' for Inactive)
REMARK    1  A    between atoms: C_3  and  O_11
REMARK    2  A    between atoms: C_6  and  C_7
REMARK    3  A    between atoms: C_7  and  C_8
REMARK    4  A    between atoms: C_8  and  O_10
REMARK                            x       y       z     vdW  Elec       q    Type
REMARK                         _______ _______ _______ _____ _____    ______ ____
ROOT
ATOM      1  C   UNL     1      -1.098  -1.293   0.289  1.00  0.00    +0.000 A 
ATOM      2  C   UNL     1       0.291  -1.201   0.174  1.00  0.00    +0.000 A 
ATOM      3  C   UNL     1       0.873   0.028  -0.118  1.00  0.00    +0.000 A 
ATOM      4  C   UNL     1       0.091   1.163  -0.293  1.00  0.00    +0.000 A 
ATOM      5  C   UNL     1      -1.297   1.073  -0.177  1.00  0.00    +0.000 A 
ATOM      6  C   UNL     1      -1.904  -0.158   0.111  1.00  0.00    +0.000 A 
ENDROOT
BRANCH   3   7
ATOM      7  O   UNL     1       2.223   0.164  -0.243  1.00  0.00    +0.000 OA
ATOM      8  H   UNL     1       2.641  -0.696  -0.068  1.00  0.00    +0.000 HD
ENDBRANCH   3   7
BRANCH   6   9
ATOM      9  C   UNL     1      -3.408  -0.270   0.197  1.00  0.00    +0.000 C 
BRANCH   9  10
ATOM     10  C   UNL     1      -4.072  -1.010  -0.945  1.00  0.00    +0.000 C 
ATOM     11  O   UNL     1      -5.161  -1.559  -0.829  1.00  0.00    +0.000 OA
BRANCH  10  12
ATOM     12  O   UNL     1      -3.426  -0.975  -2.131  1.00  0.00    +0.000 OA
ATOM     13  H   UNL     1      -2.566  -0.511  -2.111  1.00  0.00    +0.000 HD
ENDBRANCH  10  12
ENDBRANCH   9  10
ENDBRANCH   6   9
TORSDOF 4
