MODEL 1
REMARK VINA RESULT:    -5.254      0.000      0.000
REMARK INTER + INTRA:          -6.255
REMARK INTER:                  -6.176
REMARK INTRA:                  -0.079
REMARK UNBOUND:                -0.079
REMARK  Name = 
REMARK  4 active torsions:
REMARK  status: ('A' for Active; 'I' for Inactive)
REMARK    1  A    between atoms: C_3  and  O_11
REMARK    2  A    between atoms: C_6  and  C_7
REMARK    3  A    between atoms: C_7  and  C_8
REMARK    4  A    between atoms: C_8  and  O_10
REMARK                            x       y       z     vdW  Elec       q    Type
REMARK                         _______ _______ _______ _____ _____    ______ ____
ROOT
ATOM      1  C   UNL     1      -4.247   2.313  15.548  1.00  0.00    +0.000 A 
ATOM      2  C   UNL     1      -4.376   1.277  16.476  1.00  0.00    +0.000 A 
ATOM      3  C   UNL     1      -5.567   1.135  17.180  1.00  0.00    +0.000 A 
ATOM      4  C   UNL     1      -6.628   2.007  16.970  1.00  0.00    +0.000 A 
ATOM      5  C   UNL     1      -6.500   3.042  16.042  1.00  0.00    +0.000 A 
ATOM      6  C   UNL     1      -5.306   3.207  15.326  1.00  0.00    +0.000 A 
ENDROOT
BRANCH   3   7
ATOM      7  O   UNL     1      -5.737   0.141  18.097  1.00  0.00    +0.000 OA
ATOM      8  H   UNL     1      -5.279   0.391  18.917  1.00  0.00    +0.000 HD
ENDBRANCH   3   7
BRANCH   6   9
ATOM      9  C   UNL     1      -5.147   4.350  14.351  1.00  0.00    +0.000 C 
BRANCH   9  10
ATOM     10  C   UNL     1      -5.965   5.586  14.659  1.00  0.00    +0.000 C 
ATOM     11  O   UNL     1      -5.752   6.289  15.640  1.00  0.00    +0.000 OA
BRANCH  10  12
ATOM     12  O   UNL     1      -6.908   5.917  13.750  1.00  0.00    +0.000 OA
ATOM     13  H   UNL     1      -7.024   6.878  13.617  1.00  0.00    +0.000 HD
ENDBRANCH  10  12
ENDBRANCH   9  10
ENDBRANCH   6   9
TORSDOF 4
ENDMDL
MODEL 2
REMARK VINA RESULT:    -5.224      2.863      3.506
REMARK INTER + INTRA:          -6.219
REMARK INTER:                  -6.117
REMARK INTRA:                  -0.102
REMARK UNBOUND:                -0.079
REMARK  Name = 
REMARK  4 active torsions:
REMARK  status: ('A' for Active; 'I' for Inactive)
REMARK    1  A    between atoms: C_3  and  O_11
REMARK    2  A    between atoms: C_6  and  C_7
REMARK    3  A    between atoms: C_7  and  C_8
REMARK    4  A    between atoms: C_8  and  O_10
REMARK                            x       y       z     vdW  Elec       q    Type
REMARK                         _______ _______ _______ _____ _____    ______ ____
ROOT
ATOM      1  C   UNL     1      -5.840   3.140  14.955  1.00  0.00    +0.000 A 
ATOM      2  C   UNL     1      -6.435   2.988  16.210  1.00  0.00    +0.000 A 
ATOM      3  C   UNL     1      -6.117   1.880  16.987  1.00  0.00    +0.000 A 
ATOM      4  C   UNL     1      -5.215   0.925  16.533  1.00  0.00    +0.000 A 
ATOM      5  C   UNL     1      -4.620   1.076  15.280  1.00  0.00    +0.000 A 
ATOM      6  C   UNL     1      -4.931   2.184  14.478  1.00  0.00    +0.000 A 
ENDROOT
BRANCH   3   7
ATOM      7  O   UNL     1      -6.675   1.689  18.216  1.00  0.00    +0.000 OA
ATOM      8  H   UNL     1      -7.320   0.964  18.157  1.00  0.00    +0.000 HD
ENDBRANCH   3   7
BRANCH   6   9
ATOM      9  C   UNL     1      -4.321   2.331  13.104  1.00  0.00    +0.000 C 
BRANCH   9  10
ATOM     10  C   UNL     1      -4.877   1.407  12.041  1.00  0.00    +0.000 C 
ATOM     11  O   UNL     1      -4.510   0.244  11.923  1.00  0.00    +0.000 OA
BRANCH  10  12
ATOM     12  O   UNL     1      -5.860   1.915  11.267  1.00  0.00    +0.000 OA
ATOM     13  H   UNL     1      -6.254   2.744  11.603  1.00  0.00    +0.000 HD
ENDBRANCH  10  12
ENDBRANCH   9  10
ENDBRANCH   6   9
TORSDOF 4
ENDMDL
MODEL 3
REMARK VINA RESULT:    -5.108      1.968      2.105
REMARK INTER + INTRA:          -6.083
REMARK INTER:                  -5.986
REMARK INTRA:                  -0.097
REMARK UNBOUND:                -0.079
REMARK  Name = 
REMARK  4 active torsions:
REMARK  status: ('A' for Active; 'I' for Inactive)
REMARK    1  A    between atoms: C_3  and  O_11
REMARK    2  A    between atoms: C_6  and  C_7
REMARK    3  A    between atoms: C_7  and  C_8
REMARK    4  A    between atoms: C_8  and  O_10
REMARK                            x       y       z     vdW  Elec       q    Type
REMARK                         _______ _______ _______ _____ _____    ______ ____
ROOT
ATOM      1  C   UNL     1      -4.537   1.785  15.325  1.00  0.00    +0.000 A 
ATOM      2  C   UNL     1      -4.633   0.849  16.357  1.00  0.00    +0.000 A 
ATOM      3  C   UNL     1      -5.670   0.950  17.279  1.00  0.00    +0.000 A 
ATOM      4  C   UNL     1      -6.611   1.968  17.183  1.00  0.00    +0.000 A 
ATOM      5  C   UNL     1      -6.517   2.904  16.151  1.00  0.00    +0.000 A 
ATOM      6  C   UNL     1      -5.476   2.822  15.216  1.00  0.00    +0.000 A 
ENDROOT
BRANCH   3   7
ATOM      7  O   UNL     1      -5.801   0.062  18.303  1.00  0.00    +0.000 OA
ATOM      8  H   UNL     1      -6.745  -0.132  18.430  1.00  0.00    +0.000 HD
ENDBRANCH   3   7
BRANCH   6   9
ATOM      9  C   UNL     1      -5.345   3.856  14.121  1.00  0.00    +0.000 C 
BRANCH   9  10
ATOM     10  C   UNL     1      -4.628   3.393  12.871  1.00  0.00    +0.000 C 
ATOM     11  O   UNL     1      -3.456   3.666  12.644  1.00  0.00    +0.000 OA
BRANCH  10  12
ATOM     12  O   UNL     1      -5.337   2.596  12.040  1.00  0.00    +0.000 OA
ATOM     13  H   UNL     1      -4.802   2.139  11.362  1.00  0.00    +0.000 HD
ENDBRANCH  10  12
ENDBRANCH   9  10
ENDBRANCH   6   9
TORSDOF 4
ENDMDL
MODEL 4
REMARK VINA RESULT:    -5.086      3.558      5.431
REMARK INTER + INTRA:          -6.056
REMARK INTER:                  -5.914
REMARK INTRA:                  -0.142
REMARK UNBOUND:                -0.079
REMARK  Name = 
REMARK  4 active torsions:
REMARK  status: ('A' for Active; 'I' for Inactive)
REMARK    1  A    between atoms: C_3  and  O_11
REMARK    2  A    between atoms: C_6  and  C_7
REMARK    3  A    between atoms: C_7  and  C_8
REMARK    4  A    between atoms: C_8  and  O_10
REMARK                            x       y       z     vdW  Elec       q    Type
REMARK                         _______ _______ _______ _____ _____    ______ ____
ROOT
ATOM      1  C   UNL     1      -3.519   3.267  13.042  1.00  0.00    +0.000 A 
ATOM      2  C   UNL     1      -2.828   3.129  11.836  1.00  0.00    +0.000 A 
ATOM      3  C   UNL     1      -2.908   1.931  11.135  1.00  0.00    +0.000 A 
ATOM      4  C   UNL     1      -3.668   0.872  11.618  1.00  0.00    +0.000 A 
ATOM      5  C   UNL     1      -4.360   1.009  12.822  1.00  0.00    +0.000 A 
ATOM      6  C   UNL     1      -4.288   2.207  13.547  1.00  0.00    +0.000 A 
ENDROOT
BRANCH   3   7
ATOM      7  O   UNL     1      -2.248   1.750   9.957  1.00  0.00    +0.000 OA
ATOM      8  H   UNL     1      -2.175   2.608   9.506  1.00  0.00    +0.000 HD
ENDBRANCH   3   7
BRANCH   6   9
ATOM      9  C   UNL     1      -5.002   2.346  14.871  1.00  0.00    +0.000 C 
BRANCH   9  10
ATOM     10  C   UNL     1      -4.651   1.304  15.912  1.00  0.00    +0.000 C 
ATOM     11  O   UNL     1      -5.390   0.363  16.177  1.00  0.00    +0.000 OA
BRANCH  10  12
ATOM     12  O   UNL     1      -3.437   1.428  16.492  1.00  0.00    +0.000 OA
ATOM     13  H   UNL     1      -3.462   1.692  17.433  1.00  0.00    +0.000 HD
ENDBRANCH  10  12
ENDBRANCH   9  10
ENDBRANCH   6   9
TORSDOF 4
ENDMDL
MODEL 5
REMARK VINA RESULT:    -5.071      1.552      4.522
REMARK INTER + INTRA:          -6.039
REMARK INTER:                  -5.905
REMARK INTRA:                  -0.135
REMARK UNBOUND:                -0.079
REMARK  Name = 
REMARK  4 active torsions:
REMARK  status: ('A' for Active; 'I' for Inactive)
REMARK    1  A    between atoms: C_3  and  O_11
REMARK    2  A    between atoms: C_6  and  C_7
REMARK    3  A    between atoms: C_7  and  C_8
REMARK    4  A    between atoms: C_8  and  O_10
REMARK                            x       y       z     vdW  Elec       q    Type
REMARK                         _______ _______ _______ _____ _____    ______ ____
ROOT
ATOM      1  C   UNL     1      -4.602   2.339  15.771  1.00  0.00    +0.000 A 
ATOM      2  C   UNL     1      -3.806   3.231  15.049  1.00  0.00    +0.000 A 
ATOM      3  C   UNL     1      -4.350   4.435  14.615  1.00  0.00    +0.000 A 
ATOM      4  C   UNL     1      -5.672   4.761  14.893  1.00  0.00    +0.000 A 
ATOM      5  C   UNL     1      -6.468   3.871  15.616  1.00  0.00    +0.000 A 
ATOM      6  C   UNL     1      -5.940   2.649  16.058  1.00  0.00    +0.000 A 
ENDROOT
BRANCH   3   7
ATOM      7  O   UNL     1      -3.613   5.334  13.905  1.00  0.00    +0.000 OA
ATOM      8  H   UNL     1      -2.695   5.307  14.225  1.00  0.00    +0.000 HD
ENDBRANCH   3   7
BRANCH   6   9
ATOM      9  C   UNL     1      -6.809   1.664  16.804  1.00  0.00    +0.000 C 
BRANCH   9  10
ATOM     10  C   UNL     1      -6.279   1.220  18.151  1.00  0.00    +0.000 C 
ATOM     11  O   UNL     1      -6.350   1.923  19.151  1.00  0.00    +0.000 OA
BRANCH  10  12
ATOM     12  O   UNL     1      -5.779  -0.034  18.209  1.00  0.00    +0.000 OA
ATOM     13  H   UNL     1      -5.552  -0.339  19.109  1.00  0.00    +0.000 HD
ENDBRANCH  10  12
ENDBRANCH   9  10
ENDBRANCH   6   9
TORSDOF 4
ENDMDL
MODEL 6
REMARK VINA RESULT:    -4.930      1.741      4.965
REMARK INTER + INTRA:          -5.873
REMARK INTER:                  -5.750
REMARK INTRA:                  -0.123
REMARK UNBOUND:                -0.079
REMARK  Name = 
REMARK  4 active torsions:
REMARK  status: ('A' for Active; 'I' for Inactive)
REMARK    1  A    between atoms: C_3  and  O_11
REMARK    2  A    between atoms: C_6  and  C_7
REMARK    3  A    between atoms: C_7  and  C_8
REMARK    4  A    between atoms: C_8  and  O_10
REMARK                            x       y       z     vdW  Elec       q    Type
REMARK                         _______ _______ _______ _____ _____    ______ ____
ROOT
ATOM      1  C   UNL     1      -5.649   4.094  15.025  1.00  0.00    +0.000 A 
ATOM      2  C   UNL     1      -5.460   5.475  15.123  1.00  0.00    +0.000 A 
ATOM      3  C   UNL     1      -4.178   6.000  15.000  1.00  0.00    +0.000 A 
ATOM      4  C   UNL     1      -3.086   5.170  14.780  1.00  0.00    +0.000 A 
ATOM      5  C   UNL     1      -3.273   3.791  14.681  1.00  0.00    +0.000 A 
ATOM      6  C   UNL     1      -4.557   3.240  14.807  1.00  0.00    +0.000 A 
ENDROOT
BRANCH   3   7
ATOM      7  O   UNL     1      -3.947   7.340  15.092  1.00  0.00    +0.000 OA
ATOM      8  H   UNL     1      -3.236   7.577  14.473  1.00  0.00    +0.000 HD
ENDBRANCH   3   7
BRANCH   6   9
ATOM      9  C   UNL     1      -4.760   1.745  14.742  1.00  0.00    +0.000 C 
BRANCH   9  10
ATOM     10  C   UNL     1      -4.801   1.035  16.079  1.00  0.00    +0.000 C 
ATOM     11  O   UNL     1      -5.830   0.550  16.535  1.00  0.00    +0.000 OA
BRANCH  10  12
ATOM     12  O   UNL     1      -3.619   0.902  16.718  1.00  0.00    +0.000 OA
ATOM     13  H   UNL     1      -3.163   0.052  16.556  1.00  0.00    +0.000 HD
ENDBRANCH  10  12
ENDBRANCH   9  10
ENDBRANCH   6   9
TORSDOF 4
ENDMDL
MODEL 7
REMARK VINA RESULT:    -4.863      1.891      2.507
REMARK INTER + INTRA:          -5.795
REMARK INTER:                  -5.671
REMARK INTRA:                  -0.124
REMARK UNBOUND:                -0.079
REMARK  Name = 
REMARK  4 active torsions:
REMARK  status: ('A' for Active; 'I' for Inactive)
REMARK    1  A    between atoms: C_3  and  O_11
REMARK    2  A    between atoms: C_6  and  C_7
REMARK    3  A    between atoms: C_7  and  C_8
REMARK    4  A    between atoms: C_8  and  O_10
REMARK                            x       y       z     vdW  Elec       q    Type
REMARK                         _______ _______ _______ _____ _____    ______ ____
ROOT
ATOM      1  C   UNL     1      -6.237   3.094  15.854  1.00  0.00    +0.000 A 
ATOM      2  C   UNL     1      -6.571   2.058  16.729  1.00  0.00    +0.000 A 
ATOM      3  C   UNL     1      -5.597   1.139  17.103  1.00  0.00    +0.000 A 
ATOM      4  C   UNL     1      -4.299   1.240  16.620  1.00  0.00    +0.000 A 
ATOM      5  C   UNL     1      -3.963   2.275  15.746  1.00  0.00    +0.000 A 
ATOM      6  C   UNL     1      -4.931   3.210  15.352  1.00  0.00    +0.000 A 
ENDROOT
BRANCH   3   7
ATOM      7  O   UNL     1      -5.879   0.110  17.952  1.00  0.00    +0.000 OA
ATOM      8  H   UNL     1      -5.897  -0.718  17.443  1.00  0.00    +0.000 HD
ENDBRANCH   3   7
BRANCH   6   9
ATOM      9  C   UNL     1      -4.584   4.308  14.375  1.00  0.00    +0.000 C 
BRANCH   9  10
ATOM     10  C   UNL     1      -3.996   3.846  13.059  1.00  0.00    +0.000 C 
ATOM     11  O   UNL     1      -2.789   3.822  12.850  1.00  0.00    +0.000 OA
BRANCH  10  12
ATOM     12  O   UNL     1      -4.876   3.391  12.141  1.00  0.00    +0.000 OA
ATOM     13  H   UNL     1      -5.771   3.211  12.491  1.00  0.00    +0.000 HD
ENDBRANCH  10  12
ENDBRANCH   9  10
ENDBRANCH   6   9
TORSDOF 4
ENDMDL
MODEL 8
REMARK VINA RESULT:    -4.541      5.402      6.763
REMARK INTER + INTRA:          -5.416
REMARK INTER:                  -5.334
REMARK INTRA:                  -0.082
REMARK UNBOUND:                -0.079
REMARK  Name = 
REMARK  4 active torsions:
REMARK  status: ('A' for Active; 'I' for Inactive)
REMARK    1  A    between atoms: C_3  and  O_11
REMARK    2  A    between atoms: C_6  and  C_7
REMARK    3  A    between atoms: C_7  and  C_8
REMARK    4  A    between atoms: C_8  and  O_10
REMARK                            x       y       z     vdW  Elec       q    Type
REMARK                         _______ _______ _______ _____ _____    ______ ____
ROOT
ATOM      1  C   UNL     1      -2.010   1.595  11.183  1.00  0.00    +0.000 A 
ATOM      2  C   UNL     1      -0.996   2.539  11.362  1.00  0.00    +0.000 A 
ATOM      3  C   UNL     1      -1.249   3.680  12.117  1.00  0.00    +0.000 A 
ATOM      4  C   UNL     1      -2.494   3.889  12.696  1.00  0.00    +0.000 A 
ATOM      5  C   UNL     1      -3.508   2.946  12.520  1.00  0.00    +0.000 A 
ATOM      6  C   UNL     1      -3.275   1.792  11.758  1.00  0.00    +0.000 A 
ENDROOT
BRANCH   3   7
ATOM      7  O   UNL     1      -0.291   4.629  12.314  1.00  0.00    +0.000 OA
ATOM      8  H   UNL     1       0.581   4.229  12.159  1.00  0.00    +0.000 HD
ENDBRANCH   3   7
BRANCH   6   9
ATOM      9  C   UNL     1      -4.381   0.788  11.529  1.00  0.00    +0.000 C 
BRANCH   9  10
ATOM     10  C   UNL     1      -4.020  -0.388  10.646  1.00  0.00    +0.000 C 
ATOM     11  O   UNL     1      -3.590  -1.443  11.098  1.00  0.00    +0.000 OA
BRANCH  10  12
ATOM     12  O   UNL     1      -4.263  -0.237   9.326  1.00  0.00    +0.000 OA
ATOM     13  H   UNL     1      -5.209  -0.148   9.096  1.00  0.00    +0.000 HD
ENDBRANCH  10  12
ENDBRANCH   9  10
ENDBRANCH   6   9
TORSDOF 4
ENDMDL
MODEL 9
REMARK VINA RESULT:    -4.417      4.279      4.924
REMARK INTER + INTRA:          -5.271
REMARK INTER:                  -5.144
REMARK INTRA:                  -0.127
REMARK UNBOUND:                -0.079
REMARK  Name = 
REMARK  4 active torsions:
REMARK  status: ('A' for Active; 'I' for Inactive)
REMARK    1  A    between atoms: C_3  and  O_11
REMARK    2  A    between atoms: C_6  and  C_7
REMARK    3  A    between atoms: C_7  and  C_8
REMARK    4  A    between atoms: C_8  and  O_10
REMARK                            x       y       z     vdW  Elec       q    Type
REMARK                         _______ _______ _______ _____ _____    ______ ____
ROOT
ATOM      1  C   UNL     1      -2.307   2.133  11.580  1.00  0.00    +0.000 A 
ATOM      2  C   UNL     1      -2.309   0.813  11.124  1.00  0.00    +0.000 A 
ATOM      3  C   UNL     1      -3.453   0.038  11.279  1.00  0.00    +0.000 A 
ATOM      4  C   UNL     1      -4.592   0.561  11.878  1.00  0.00    +0.000 A 
ATOM      5  C   UNL     1      -4.593   1.880  12.333  1.00  0.00    +0.000 A 
ATOM      6  C   UNL     1      -3.448   2.677  12.191  1.00  0.00    +0.000 A 
ENDROOT
BRANCH   3   7
ATOM      7  O   UNL     1      -3.499  -1.256  10.853  1.00  0.00    +0.000 OA
ATOM      8  H   UNL     1      -3.498  -1.841  11.630  1.00  0.00    +0.000 HD
ENDBRANCH   3   7
BRANCH   6   9
ATOM      9  C   UNL     1      -3.428   4.093  12.718  1.00  0.00    +0.000 C 
BRANCH   9  10
ATOM     10  C   UNL     1      -3.268   4.227  14.218  1.00  0.00    +0.000 C 
ATOM     11  O   UNL     1      -4.224   4.254  14.983  1.00  0.00    +0.000 OA
BRANCH  10  12
ATOM     12  O   UNL     1      -1.998   4.245  14.680  1.00  0.00    +0.000 OA
ATOM     13  H   UNL     1      -1.313   4.200  13.985  1.00  0.00    +0.000 HD
ENDBRANCH  10  12
ENDBRANCH   9  10
ENDBRANCH   6   9
TORSDOF 4
ENDMDL
