MODEL 1
REMARK VINA RESULT:    -5.265      0.000      0.000
REMARK INTER + INTRA:          -6.253
REMARK INTER:                  -6.188
REMARK INTRA:                  -0.064
REMARK UNBOUND:                -0.064
REMARK  Name = 
REMARK  4 active torsions:
REMARK  status: ('A' for Active; 'I' for Inactive)
REMARK    1  A    between atoms: C_3  and  O_11
REMARK    2  A    between atoms: C_6  and  C_7
REMARK    3  A    between atoms: C_7  and  C_8
REMARK    4  A    between atoms: C_8  and  O_10
REMARK                            x       y       z     vdW  Elec       q    Type
REMARK                         _______ _______ _______ _____ _____    ______ ____
ROOT
ATOM      1  C   UNL     1      -4.257   2.287  15.544  1.00  0.00    +0.000 A 
ATOM      2  C   UNL     1      -4.396   1.255  16.474  1.00  0.00    +0.000 A 
ATOM      3  C   UNL     1      -5.585   1.131  17.185  1.00  0.00    +0.000 A 
ATOM      4  C   UNL     1      -6.634   2.018  16.980  1.00  0.00    +0.000 A 
ATOM      5  C   UNL     1      -6.497   3.050  16.050  1.00  0.00    +0.000 A 
ATOM      6  C   UNL     1      -5.305   3.196  15.326  1.00  0.00    +0.000 A 
ENDROOT
BRANCH   3   7
ATOM      7  O   UNL     1      -5.764   0.141  18.105  1.00  0.00    +0.000 OA
ATOM      8  H   UNL     1      -5.600  -0.716  17.677  1.00  0.00    +0.000 HD
ENDBRANCH   3   7
BRANCH   6   9
ATOM      9  C   UNL     1      -5.135   4.335  14.349  1.00  0.00    +0.000 C 
BRANCH   9  10
ATOM     10  C   UNL     1      -5.958   5.572  14.641  1.00  0.00    +0.000 C 
ATOM     11  O   UNL     1      -5.768   6.270  15.630  1.00  0.00    +0.000 OA
BRANCH  10  12
ATOM     12  O   UNL     1      -6.878   5.908  13.710  1.00  0.00    +0.000 OA
ATOM     13  H   UNL     1      -6.810   6.827  13.387  1.00  0.00    +0.000 HD
ENDBRANCH  10  12
ENDBRANCH   9  10
ENDBRANCH   6   9
TORSDOF 4
ENDMDL
MODEL 2
REMARK VINA RESULT:    -5.261      0.109      1.462
REMARK INTER + INTRA:          -6.248
REMARK INTER:                  -6.147
REMARK INTRA:                  -0.101
REMARK UNBOUND:                -0.064
REMARK  Name = 
REMARK  4 active torsions:
REMARK  status: ('A' for Active; 'I' for Inactive)
REMARK    1  A    between atoms: C_3  and  O_11
REMARK    2  A    between atoms: C_6  and  C_7
REMARK    3  A    between atoms: C_7  and  C_8
REMARK    4  A    between atoms: C_8  and  O_10
REMARK                            x       y       z     vdW  Elec       q    Type
REMARK                         _______ _______ _______ _____ _____    ______ ____
ROOT
ATOM      1  C   UNL     1      -6.489   3.054  16.068  1.00  0.00    +0.000 A 
ATOM      2  C   UNL     1      -6.673   2.030  17.000  1.00  0.00    +0.000 A 
ATOM      3  C   UNL     1      -5.646   1.119  17.226  1.00  0.00    +0.000 A 
ATOM      4  C   UNL     1      -4.442   1.218  16.539  1.00  0.00    +0.000 A 
ATOM      5  C   UNL     1      -4.257   2.242  15.609  1.00  0.00    +0.000 A 
ATOM      6  C   UNL     1      -5.282   3.167  15.362  1.00  0.00    +0.000 A 
ENDROOT
BRANCH   3   7
ATOM      7  O   UNL     1      -5.782   0.102  18.122  1.00  0.00    +0.000 OA
ATOM      8  H   UNL     1      -4.980   0.060  18.670  1.00  0.00    +0.000 HD
ENDBRANCH   3   7
BRANCH   6   9
ATOM      9  C   UNL     1      -5.102   4.252  14.327  1.00  0.00    +0.000 C 
BRANCH   9  10
ATOM     10  C   UNL     1      -5.826   5.551  14.613  1.00  0.00    +0.000 C 
ATOM     11  O   UNL     1      -5.518   6.284  15.545  1.00  0.00    +0.000 OA
BRANCH  10  12
ATOM     12  O   UNL     1      -6.795   5.897  13.737  1.00  0.00    +0.000 OA
ATOM     13  H   UNL     1      -7.353   5.154  13.436  1.00  0.00    +0.000 HD
ENDBRANCH  10  12
ENDBRANCH   9  10
ENDBRANCH   6   9
TORSDOF 4
ENDMDL
MODEL 3
REMARK VINA RESULT:    -5.126      1.710      1.835
REMARK INTER + INTRA:          -6.090
REMARK INTER:                  -5.963
REMARK INTRA:                  -0.126
REMARK UNBOUND:                -0.064
REMARK  Name = 
REMARK  4 active torsions:
REMARK  status: ('A' for Active; 'I' for Inactive)
REMARK    1  A    between atoms: C_3  and  O_11
REMARK    2  A    between atoms: C_6  and  C_7
REMARK    3  A    between atoms: C_7  and  C_8
REMARK    4  A    between atoms: C_8  and  O_10
REMARK                            x       y       z     vdW  Elec       q    Type
REMARK                         _______ _______ _______ _____ _____    ______ ____
ROOT
ATOM      1  C   UNL     1      -4.337   2.283  15.575  1.00  0.00    +0.000 A 
ATOM      2  C   UNL     1      -4.434   1.265  16.527  1.00  0.00    +0.000 A 
ATOM      3  C   UNL     1      -5.603   1.131  17.268  1.00  0.00    +0.000 A 
ATOM      4  C   UNL     1      -6.674   1.994  17.072  1.00  0.00    +0.000 A 
ATOM      5  C   UNL     1      -6.580   3.011  16.121  1.00  0.00    +0.000 A 
ATOM      6  C   UNL     1      -5.408   3.167  15.367  1.00  0.00    +0.000 A 
ENDROOT
BRANCH   3   7
ATOM      7  O   UNL     1      -5.740   0.155  18.209  1.00  0.00    +0.000 OA
ATOM      8  H   UNL     1      -6.687   0.002  18.365  1.00  0.00    +0.000 HD
ENDBRANCH   3   7
BRANCH   6   9
ATOM      9  C   UNL     1      -5.284   4.291  14.365  1.00  0.00    +0.000 C 
BRANCH   9  10
ATOM     10  C   UNL     1      -4.514   3.958  13.105  1.00  0.00    +0.000 C 
ATOM     11  O   UNL     1      -3.392   4.398  12.883  1.00  0.00    +0.000 OA
BRANCH  10  12
ATOM     12  O   UNL     1      -5.106   3.087  12.259  1.00  0.00    +0.000 OA
ATOM     13  H   UNL     1      -6.077   3.178  12.197  1.00  0.00    +0.000 HD
ENDBRANCH  10  12
ENDBRANCH   9  10
ENDBRANCH   6   9
TORSDOF 4
ENDMDL
MODEL 4
REMARK VINA RESULT:    -5.115      3.577      5.456
REMARK INTER + INTRA:          -6.076
REMARK INTER:                  -5.937
REMARK INTRA:                  -0.139
REMARK UNBOUND:                -0.064
REMARK  Name = 
REMARK  4 active torsions:
REMARK  status: ('A' for Active; 'I' for Inactive)
REMARK    1  A    between atoms: C_3  and  O_11
REMARK    2  A    between atoms: C_6  and  C_7
REMARK    3  A    between atoms: C_7  and  C_8
REMARK    4  A    between atoms: C_8  and  O_10
REMARK                            x       y       z     vdW  Elec       q    Type
REMARK                         _______ _______ _______ _____ _____    ______ ____
ROOT
ATOM      1  C   UNL     1      -3.534   3.154  13.022  1.00  0.00    +0.000 A 
ATOM      2  C   UNL     1      -2.838   3.004  11.820  1.00  0.00    +0.000 A 
ATOM      3  C   UNL     1      -2.898   1.792  11.142  1.00  0.00    +0.000 A 
ATOM      4  C   UNL     1      -3.642   0.731  11.643  1.00  0.00    +0.000 A 
ATOM      5  C   UNL     1      -4.339   0.879  12.843  1.00  0.00    +0.000 A 
ATOM      6  C   UNL     1      -4.288   2.092  13.546  1.00  0.00    +0.000 A 
ENDROOT
BRANCH   3   7
ATOM      7  O   UNL     1      -2.232   1.599   9.969  1.00  0.00    +0.000 OA
ATOM      8  H   UNL     1      -2.841   1.778   9.232  1.00  0.00    +0.000 HD
ENDBRANCH   3   7
BRANCH   6   9
ATOM      9  C   UNL     1      -5.006   2.245  14.865  1.00  0.00    +0.000 C 
BRANCH   9  10
ATOM     10  C   UNL     1      -4.645   1.226  15.925  1.00  0.00    +0.000 C 
ATOM     11  O   UNL     1      -5.361   0.267  16.189  1.00  0.00    +0.000 OA
BRANCH  10  12
ATOM     12  O   UNL     1      -3.446   1.392  16.525  1.00  0.00    +0.000 OA
ATOM     13  H   UNL     1      -3.019   2.253  16.346  1.00  0.00    +0.000 HD
ENDBRANCH  10  12
ENDBRANCH   9  10
ENDBRANCH   6   9
TORSDOF 4
ENDMDL
MODEL 5
REMARK VINA RESULT:    -5.104      1.555      4.721
REMARK INTER + INTRA:          -6.063
REMARK INTER:                  -5.935
REMARK INTRA:                  -0.128
REMARK UNBOUND:                -0.064
REMARK  Name = 
REMARK  4 active torsions:
REMARK  status: ('A' for Active; 'I' for Inactive)
REMARK    1  A    between atoms: C_3  and  O_11
REMARK    2  A    between atoms: C_6  and  C_7
REMARK    3  A    between atoms: C_7  and  C_8
REMARK    4  A    between atoms: C_8  and  O_10
REMARK                            x       y       z     vdW  Elec       q    Type
REMARK                         _______ _______ _______ _____ _____    ______ ____
ROOT
ATOM      1  C   UNL     1      -6.485   3.934  15.658  1.00  0.00    +0.000 A 
ATOM      2  C   UNL     1      -5.682   4.848  14.972  1.00  0.00    +0.000 A 
ATOM      3  C   UNL     1      -4.365   4.513  14.674  1.00  0.00    +0.000 A 
ATOM      4  C   UNL     1      -3.842   3.280  15.047  1.00  0.00    +0.000 A 
ATOM      5  C   UNL     1      -4.644   2.365  15.731  1.00  0.00    +0.000 A 
ATOM      6  C   UNL     1      -5.972   2.687  16.046  1.00  0.00    +0.000 A 
ENDROOT
BRANCH   3   7
ATOM      7  O   UNL     1      -3.544   5.374  14.011  1.00  0.00    +0.000 OA
ATOM      8  H   UNL     1      -3.710   6.276  14.335  1.00  0.00    +0.000 HD
ENDBRANCH   3   7
BRANCH   6   9
ATOM      9  C   UNL     1      -6.833   1.717  16.822  1.00  0.00    +0.000 C 
BRANCH   9  10
ATOM     10  C   UNL     1      -6.277   1.282  18.162  1.00  0.00    +0.000 C 
ATOM     11  O   UNL     1      -6.393   1.962  19.174  1.00  0.00    +0.000 OA
BRANCH  10  12
ATOM     12  O   UNL     1      -5.700   0.061  18.198  1.00  0.00    +0.000 OA
ATOM     13  H   UNL     1      -4.809   0.022  17.799  1.00  0.00    +0.000 HD
ENDBRANCH  10  12
ENDBRANCH   9  10
ENDBRANCH   6   9
TORSDOF 4
ENDMDL
MODEL 6
REMARK VINA RESULT:    -5.082      2.116      4.643
REMARK INTER + INTRA:          -6.037
REMARK INTER:                  -5.894
REMARK INTRA:                  -0.143
REMARK UNBOUND:                -0.064
REMARK  Name = 
REMARK  4 active torsions:
REMARK  status: ('A' for Active; 'I' for Inactive)
REMARK    1  A    between atoms: C_3  and  O_11
REMARK    2  A    between atoms: C_6  and  C_7
REMARK    3  A    between atoms: C_7  and  C_8
REMARK    4  A    between atoms: C_8  and  O_10
REMARK                            x       y       z     vdW  Elec       q    Type
REMARK                         _______ _______ _______ _____ _____    ______ ____
ROOT
ATOM      1  C   UNL     1      -4.689   1.361  14.965  1.00  0.00    +0.000 A 
ATOM      2  C   UNL     1      -4.498   1.713  13.626  1.00  0.00    +0.000 A 
ATOM      3  C   UNL     1      -4.934   2.955  13.177  1.00  0.00    +0.000 A 
ATOM      4  C   UNL     1      -5.553   3.848  14.042  1.00  0.00    +0.000 A 
ATOM      5  C   UNL     1      -5.744   3.499  15.379  1.00  0.00    +0.000 A 
ATOM      6  C   UNL     1      -5.317   2.249  15.852  1.00  0.00    +0.000 A 
ENDROOT
BRANCH   3   7
ATOM      7  O   UNL     1      -4.772   3.339  11.879  1.00  0.00    +0.000 OA
ATOM      8  H   UNL     1      -5.648   3.441  11.472  1.00  0.00    +0.000 HD
ENDBRANCH   3   7
BRANCH   6   9
ATOM      9  C   UNL     1      -5.558   1.849  17.288  1.00  0.00    +0.000 C 
BRANCH   9  10
ATOM     10  C   UNL     1      -6.538   0.713  17.492  1.00  0.00    +0.000 C 
ATOM     11  O   UNL     1      -7.734   0.825  17.252  1.00  0.00    +0.000 OA
BRANCH  10  12
ATOM     12  O   UNL     1      -6.008  -0.463  17.893  1.00  0.00    +0.000 OA
ATOM     13  H   UNL     1      -5.173  -0.383  18.393  1.00  0.00    +0.000 HD
ENDBRANCH  10  12
ENDBRANCH   9  10
ENDBRANCH   6   9
TORSDOF 4
ENDMDL
MODEL 7
REMARK VINA RESULT:    -4.954      1.779      5.006
REMARK INTER + INTRA:          -5.887
REMARK INTER:                  -5.770
REMARK INTRA:                  -0.117
REMARK UNBOUND:                -0.064
REMARK  Name = 
REMARK  4 active torsions:
REMARK  status: ('A' for Active; 'I' for Inactive)
REMARK    1  A    between atoms: C_3  and  O_11
REMARK    2  A    between atoms: C_6  and  C_7
REMARK    3  A    between atoms: C_7  and  C_8
REMARK    4  A    between atoms: C_8  and  O_10
REMARK                            x       y       z     vdW  Elec       q    Type
REMARK                         _______ _______ _______ _____ _____    ______ ____
ROOT
ATOM      1  C   UNL     1      -5.767   4.611  15.104  1.00  0.00    +0.000 A 
ATOM      2  C   UNL     1      -5.385   5.948  14.970  1.00  0.00    +0.000 A 
ATOM      3  C   UNL     1      -4.039   6.263  14.823  1.00  0.00    +0.000 A 
ATOM      4  C   UNL     1      -3.072   5.266  14.805  1.00  0.00    +0.000 A 
ATOM      5  C   UNL     1      -3.451   3.929  14.938  1.00  0.00    +0.000 A 
ATOM      6  C   UNL     1      -4.803   3.591  15.093  1.00  0.00    +0.000 A 
ENDROOT
BRANCH   3   7
ATOM      7  O   UNL     1      -3.620   7.553  14.692  1.00  0.00    +0.000 OA
ATOM      8  H   UNL     1      -2.977   7.601  13.965  1.00  0.00    +0.000 HD
ENDBRANCH   3   7
BRANCH   6   9
ATOM      9  C   UNL     1      -5.217   2.150  15.278  1.00  0.00    +0.000 C 
BRANCH   9  10
ATOM     10  C   UNL     1      -4.850   1.534  16.612  1.00  0.00    +0.000 C 
ATOM     11  O   UNL     1      -5.592   1.582  17.586  1.00  0.00    +0.000 OA
BRANCH  10  12
ATOM     12  O   UNL     1      -3.679   0.862  16.654  1.00  0.00    +0.000 OA
ATOM     13  H   UNL     1      -3.123   0.966  15.858  1.00  0.00    +0.000 HD
ENDBRANCH  10  12
ENDBRANCH   9  10
ENDBRANCH   6   9
TORSDOF 4
ENDMDL
MODEL 8
REMARK VINA RESULT:    -4.469      3.256      4.930
REMARK INTER + INTRA:          -5.317
REMARK INTER:                  -5.184
REMARK INTRA:                  -0.133
REMARK UNBOUND:                -0.064
REMARK  Name = 
REMARK  4 active torsions:
REMARK  status: ('A' for Active; 'I' for Inactive)
REMARK    1  A    between atoms: C_3  and  O_11
REMARK    2  A    between atoms: C_6  and  C_7
REMARK    3  A    between atoms: C_7  and  C_8
REMARK    4  A    between atoms: C_8  and  O_10
REMARK                            x       y       z     vdW  Elec       q    Type
REMARK                         _______ _______ _______ _____ _____    ______ ____
ROOT
ATOM      1  C   UNL     1      -5.173   2.863  14.563  1.00  0.00    +0.000 A 
ATOM      2  C   UNL     1      -5.093   4.119  15.171  1.00  0.00    +0.000 A 
ATOM      3  C   UNL     1      -4.182   5.054  14.691  1.00  0.00    +0.000 A 
ATOM      4  C   UNL     1      -3.355   4.755  13.615  1.00  0.00    +0.000 A 
ATOM      5  C   UNL     1      -3.435   3.502  13.006  1.00  0.00    +0.000 A 
ATOM      6  C   UNL     1      -4.343   2.543  13.479  1.00  0.00    +0.000 A 
ENDROOT
BRANCH   3   7
ATOM      7  O   UNL     1      -4.067   6.289  15.254  1.00  0.00    +0.000 OA
ATOM      8  H   UNL     1      -4.086   6.194  16.221  1.00  0.00    +0.000 HD
ENDBRANCH   3   7
BRANCH   6   9
ATOM      9  C   UNL     1      -4.405   1.171  12.851  1.00  0.00    +0.000 C 
BRANCH   9  10
ATOM     10  C   UNL     1      -4.904   1.131  11.422  1.00  0.00    +0.000 C 
ATOM     11  O   UNL     1      -4.407   0.403  10.571  1.00  0.00    +0.000 OA
BRANCH  10  12
ATOM     12  O   UNL     1      -5.983   1.897  11.148  1.00  0.00    +0.000 OA
ATOM     13  H   UNL     1      -6.472   1.636  10.343  1.00  0.00    +0.000 HD
ENDBRANCH  10  12
ENDBRANCH   9  10
ENDBRANCH   6   9
TORSDOF 4
ENDMDL
MODEL 9
REMARK VINA RESULT:    -4.451      4.245      5.084
REMARK INTER + INTRA:          -5.296
REMARK INTER:                  -5.163
REMARK INTRA:                  -0.133
REMARK UNBOUND:                -0.064
REMARK  Name = 
REMARK  4 active torsions:
REMARK  status: ('A' for Active; 'I' for Inactive)
REMARK    1  A    between atoms: C_3  and  O_11
REMARK    2  A    between atoms: C_6  and  C_7
REMARK    3  A    between atoms: C_7  and  C_8
REMARK    4  A    between atoms: C_8  and  O_10
REMARK                            x       y       z     vdW  Elec       q    Type
REMARK                         _______ _______ _______ _____ _____    ______ ____
ROOT
ATOM      1  C   UNL     1      -4.523   1.920  12.461  1.00  0.00    +0.000 A 
ATOM      2  C   UNL     1      -4.590   0.595  12.025  1.00  0.00    +0.000 A 
ATOM      3  C   UNL     1      -3.494   0.031  11.381  1.00  0.00    +0.000 A 
ATOM      4  C   UNL     1      -2.335   0.767  11.170  1.00  0.00    +0.000 A 
ATOM      5  C   UNL     1      -2.265   2.091  11.606  1.00  0.00    +0.000 A 
ATOM      6  C   UNL     1      -3.361   2.681  12.252  1.00  0.00    +0.000 A 
ENDROOT
BRANCH   3   7
ATOM      7  O   UNL     1      -3.516  -1.257  10.936  1.00  0.00    +0.000 OA
ATOM      8  H   UNL     1      -4.331  -1.397  10.425  1.00  0.00    +0.000 HD
ENDBRANCH   3   7
BRANCH   6   9
ATOM      9  C   UNL     1      -3.307   4.125  12.690  1.00  0.00    +0.000 C 
BRANCH   9  10
ATOM     10  C   UNL     1      -3.129   4.349  14.177  1.00  0.00    +0.000 C 
ATOM     11  O   UNL     1      -4.060   4.653  14.913  1.00  0.00    +0.000 OA
BRANCH  10  12
ATOM     12  O   UNL     1      -1.890   4.127  14.667  1.00  0.00    +0.000 OA
ATOM     13  H   UNL     1      -1.325   3.564  14.102  1.00  0.00    +0.000 HD
ENDBRANCH  10  12
ENDBRANCH   9  10
ENDBRANCH   6   9
TORSDOF 4
ENDMDL
