MODEL 1
REMARK VINA RESULT:    -5.272      0.000      0.000
REMARK INTER + INTRA:          -6.264
REMARK INTER:                  -6.197
REMARK INTRA:                  -0.067
REMARK UNBOUND:                -0.067
REMARK  Name = 
REMARK  4 active torsions:
REMARK  status: ('A' for Active; 'I' for Inactive)
REMARK    1  A    between atoms: C_3  and  O_11
REMARK    2  A    between atoms: C_6  and  C_7
REMARK    3  A    between atoms: C_7  and  C_8
REMARK    4  A    between atoms: C_8  and  O_10
REMARK                            x       y       z     vdW  Elec       q    Type
REMARK                         _______ _______ _______ _____ _____    ______ ____
ROOT
ATOM      1  C   UNL     1      -4.264   2.290  15.547  1.00  0.00    +0.000 A 
ATOM      2  C   UNL     1      -4.396   1.259  16.479  1.00  0.00    +0.000 A 
ATOM      3  C   UNL     1      -5.586   1.125  17.187  1.00  0.00    +0.000 A 
ATOM      4  C   UNL     1      -6.643   2.002  16.976  1.00  0.00    +0.000 A 
ATOM      5  C   UNL     1      -6.512   3.033  16.044  1.00  0.00    +0.000 A 
ATOM      6  C   UNL     1      -5.319   3.188  15.324  1.00  0.00    +0.000 A 
ENDROOT
BRANCH   3   7
ATOM      7  O   UNL     1      -5.758   0.137  18.109  1.00  0.00    +0.000 OA
ATOM      8  H   UNL     1      -5.556   0.493  18.991  1.00  0.00    +0.000 HD
ENDBRANCH   3   7
BRANCH   6   9
ATOM      9  C   UNL     1      -5.157   4.326  14.343  1.00  0.00    +0.000 C 
BRANCH   9  10
ATOM     10  C   UNL     1      -5.985   5.560  14.636  1.00  0.00    +0.000 C 
ATOM     11  O   UNL     1      -5.798   6.259  15.624  1.00  0.00    +0.000 OA
BRANCH  10  12
ATOM     12  O   UNL     1      -6.906   5.891  13.705  1.00  0.00    +0.000 OA
ATOM     13  H   UNL     1      -6.886   5.339  12.899  1.00  0.00    +0.000 HD
ENDBRANCH  10  12
ENDBRANCH   9  10
ENDBRANCH   6   9
TORSDOF 4
ENDMDL
MODEL 2
REMARK VINA RESULT:    -5.199      2.906      3.529
REMARK INTER + INTRA:          -6.178
REMARK INTER:                  -6.074
REMARK INTRA:                  -0.104
REMARK UNBOUND:                -0.067
REMARK  Name = 
REMARK  4 active torsions:
REMARK  status: ('A' for Active; 'I' for Inactive)
REMARK    1  A    between atoms: C_3  and  O_11
REMARK    2  A    between atoms: C_6  and  C_7
REMARK    3  A    between atoms: C_7  and  C_8
REMARK    4  A    between atoms: C_8  and  O_10
REMARK                            x       y       z     vdW  Elec       q    Type
REMARK                         _______ _______ _______ _____ _____    ______ ____
ROOT
ATOM      1  C   UNL     1      -5.858   3.196  14.842  1.00  0.00    +0.000 A 
ATOM      2  C   UNL     1      -6.446   3.069  16.102  1.00  0.00    +0.000 A 
ATOM      3  C   UNL     1      -6.110   1.987  16.908  1.00  0.00    +0.000 A 
ATOM      4  C   UNL     1      -5.196   1.034  16.476  1.00  0.00    +0.000 A 
ATOM      5  C   UNL     1      -4.606   1.159  15.217  1.00  0.00    +0.000 A 
ATOM      6  C   UNL     1      -4.936   2.240  14.387  1.00  0.00    +0.000 A 
ENDROOT
BRANCH   3   7
ATOM      7  O   UNL     1      -6.661   1.821  18.143  1.00  0.00    +0.000 OA
ATOM      8  H   UNL     1      -5.964   1.925  18.813  1.00  0.00    +0.000 HD
ENDBRANCH   3   7
BRANCH   6   9
ATOM      9  C   UNL     1      -4.333   2.359  13.007  1.00  0.00    +0.000 C 
BRANCH   9  10
ATOM     10  C   UNL     1      -4.873   1.392  11.975  1.00  0.00    +0.000 C 
ATOM     11  O   UNL     1      -4.469   0.239  11.877  1.00  0.00    +0.000 OA
BRANCH  10  12
ATOM     12  O   UNL     1      -5.883   1.850  11.203  1.00  0.00    +0.000 OA
ATOM     13  H   UNL     1      -5.658   2.633  10.664  1.00  0.00    +0.000 HD
ENDBRANCH  10  12
ENDBRANCH   9  10
ENDBRANCH   6   9
TORSDOF 4
ENDMDL
MODEL 3
REMARK VINA RESULT:    -5.112      1.840      1.972
REMARK INTER + INTRA:          -6.076
REMARK INTER:                  -5.946
REMARK INTRA:                  -0.130
REMARK UNBOUND:                -0.067
REMARK  Name = 
REMARK  4 active torsions:
REMARK  status: ('A' for Active; 'I' for Inactive)
REMARK    1  A    between atoms: C_3  and  O_11
REMARK    2  A    between atoms: C_6  and  C_7
REMARK    3  A    between atoms: C_7  and  C_8
REMARK    4  A    between atoms: C_8  and  O_10
REMARK                            x       y       z     vdW  Elec       q    Type
REMARK                         _______ _______ _______ _____ _____    ______ ____
ROOT
ATOM      1  C   UNL     1      -4.358   2.054  15.510  1.00  0.00    +0.000 A 
ATOM      2  C   UNL     1      -4.481   1.077  16.500  1.00  0.00    +0.000 A 
ATOM      3  C   UNL     1      -5.622   1.050  17.295  1.00  0.00    +0.000 A 
ATOM      4  C   UNL     1      -6.639   1.979  17.114  1.00  0.00    +0.000 A 
ATOM      5  C   UNL     1      -6.518   2.955  16.124  1.00  0.00    +0.000 A 
ATOM      6  C   UNL     1      -5.373   3.003  15.315  1.00  0.00    +0.000 A 
ENDROOT
BRANCH   3   7
ATOM      7  O   UNL     1      -5.784   0.117  18.275  1.00  0.00    +0.000 OA
ATOM      8  H   UNL     1      -6.655   0.244  18.687  1.00  0.00    +0.000 HD
ENDBRANCH   3   7
BRANCH   6   9
ATOM      9  C   UNL     1      -5.217   4.083  14.270  1.00  0.00    +0.000 C 
BRANCH   9  10
ATOM     10  C   UNL     1      -4.581   3.641  12.969  1.00  0.00    +0.000 C 
ATOM     11  O   UNL     1      -3.456   3.992  12.634  1.00  0.00    +0.000 OA
BRANCH  10  12
ATOM     12  O   UNL     1      -5.299   2.777  12.219  1.00  0.00    +0.000 OA
ATOM     13  H   UNL     1      -5.251   1.847  12.514  1.00  0.00    +0.000 HD
ENDBRANCH  10  12
ENDBRANCH   9  10
ENDBRANCH   6   9
TORSDOF 4
ENDMDL
MODEL 4
REMARK VINA RESULT:    -5.105      3.616      5.153
REMARK INTER + INTRA:          -6.067
REMARK INTER:                  -6.000
REMARK INTRA:                  -0.067
REMARK UNBOUND:                -0.067
REMARK  Name = 
REMARK  4 active torsions:
REMARK  status: ('A' for Active; 'I' for Inactive)
REMARK    1  A    between atoms: C_3  and  O_11
REMARK    2  A    between atoms: C_6  and  C_7
REMARK    3  A    between atoms: C_7  and  C_8
REMARK    4  A    between atoms: C_8  and  O_10
REMARK                            x       y       z     vdW  Elec       q    Type
REMARK                         _______ _______ _______ _____ _____    ______ ____
ROOT
ATOM      1  C   UNL     1      -4.296   0.631  13.309  1.00  0.00    +0.000 A 
ATOM      2  C   UNL     1      -4.328   0.027  12.050  1.00  0.00    +0.000 A 
ATOM      3  C   UNL     1      -4.518   0.813  10.918  1.00  0.00    +0.000 A 
ATOM      4  C   UNL     1      -4.672   2.190  11.026  1.00  0.00    +0.000 A 
ATOM      5  C   UNL     1      -4.639   2.795  12.283  1.00  0.00    +0.000 A 
ATOM      6  C   UNL     1      -4.455   2.019  13.436  1.00  0.00    +0.000 A 
ENDROOT
BRANCH   3   7
ATOM      7  O   UNL     1      -4.559   0.267   9.671  1.00  0.00    +0.000 OA
ATOM      8  H   UNL     1      -4.667   0.981   9.020  1.00  0.00    +0.000 HD
ENDBRANCH   3   7
BRANCH   6   9
ATOM      9  C   UNL     1      -4.460   2.663  14.803  1.00  0.00    +0.000 C 
BRANCH   9  10
ATOM     10  C   UNL     1      -4.677   1.719  15.967  1.00  0.00    +0.000 C 
ATOM     11  O   UNL     1      -5.789   1.332  16.302  1.00  0.00    +0.000 OA
BRANCH  10  12
ATOM     12  O   UNL     1      -3.561   1.267  16.580  1.00  0.00    +0.000 OA
ATOM     13  H   UNL     1      -2.846   0.995  15.972  1.00  0.00    +0.000 HD
ENDBRANCH  10  12
ENDBRANCH   9  10
ENDBRANCH   6   9
TORSDOF 4
ENDMDL
MODEL 5
REMARK VINA RESULT:    -4.810     15.668     16.733
REMARK INTER + INTRA:          -5.720
REMARK INTER:                  -5.593
REMARK INTRA:                  -0.128
REMARK UNBOUND:                -0.067
REMARK  Name = 
REMARK  4 active torsions:
REMARK  status: ('A' for Active; 'I' for Inactive)
REMARK    1  A    between atoms: C_3  and  O_11
REMARK    2  A    between atoms: C_6  and  C_7
REMARK    3  A    between atoms: C_7  and  C_8
REMARK    4  A    between atoms: C_8  and  O_10
REMARK                            x       y       z     vdW  Elec       q    Type
REMARK                         _______ _______ _______ _____ _____    ______ ____
ROOT
ATOM      1  C   UNL     1       6.284  -3.507   6.206  1.00  0.00    +0.000 A 
ATOM      2  C   UNL     1       6.304  -2.133   5.954  1.00  0.00    +0.000 A 
ATOM      3  C   UNL     1       5.225  -1.541   5.306  1.00  0.00    +0.000 A 
ATOM      4  C   UNL     1       4.129  -2.298   4.911  1.00  0.00    +0.000 A 
ATOM      5  C   UNL     1       4.107  -3.670   5.163  1.00  0.00    +0.000 A 
ATOM      6  C   UNL     1       5.187  -4.288   5.810  1.00  0.00    +0.000 A 
ENDROOT
BRANCH   3   7
ATOM      7  O   UNL     1       5.203  -0.206   5.037  1.00  0.00    +0.000 OA
ATOM      8  H   UNL     1       5.156  -0.082   4.074  1.00  0.00    +0.000 HD
ENDBRANCH   3   7
BRANCH   6   9
ATOM      9  C   UNL     1       5.187  -5.779   6.048  1.00  0.00    +0.000 C 
BRANCH   9  10
ATOM     10  C   UNL     1       4.839  -6.213   7.457  1.00  0.00    +0.000 C 
ATOM     11  O   UNL     1       3.686  -6.248   7.868  1.00  0.00    +0.000 OA
BRANCH  10  12
ATOM     12  O   UNL     1       5.871  -6.629   8.223  1.00  0.00    +0.000 OA
ATOM     13  H   UNL     1       6.291  -7.459   7.921  1.00  0.00    +0.000 HD
ENDBRANCH  10  12
ENDBRANCH   9  10
ENDBRANCH   6   9
TORSDOF 4
ENDMDL
MODEL 6
REMARK VINA RESULT:    -4.687      1.465      4.409
REMARK INTER + INTRA:          -5.576
REMARK INTER:                  -5.525
REMARK INTRA:                  -0.050
REMARK UNBOUND:                -0.067
REMARK  Name = 
REMARK  4 active torsions:
REMARK  status: ('A' for Active; 'I' for Inactive)
REMARK    1  A    between atoms: C_3  and  O_11
REMARK    2  A    between atoms: C_6  and  C_7
REMARK    3  A    between atoms: C_7  and  C_8
REMARK    4  A    between atoms: C_8  and  O_10
REMARK                            x       y       z     vdW  Elec       q    Type
REMARK                         _______ _______ _______ _____ _____    ______ ____
ROOT
ATOM      1  C   UNL     1      -4.402   2.169  14.683  1.00  0.00    +0.000 A 
ATOM      2  C   UNL     1      -4.374   3.143  13.683  1.00  0.00    +0.000 A 
ATOM      3  C   UNL     1      -5.243   4.226  13.758  1.00  0.00    +0.000 A 
ATOM      4  C   UNL     1      -6.135   4.352  14.816  1.00  0.00    +0.000 A 
ATOM      5  C   UNL     1      -6.163   3.380  15.818  1.00  0.00    +0.000 A 
ATOM      6  C   UNL     1      -5.299   2.277  15.757  1.00  0.00    +0.000 A 
ENDROOT
BRANCH   3   7
ATOM      7  O   UNL     1      -5.254   5.198  12.803  1.00  0.00    +0.000 OA
ATOM      8  H   UNL     1      -5.010   6.044  13.216  1.00  0.00    +0.000 HD
ENDBRANCH   3   7
BRANCH   6   9
ATOM      9  C   UNL     1      -5.354   1.201  16.816  1.00  0.00    +0.000 C 
BRANCH   9  10
ATOM     10  C   UNL     1      -6.517   1.295  17.781  1.00  0.00    +0.000 C 
ATOM     11  O   UNL     1      -6.419   1.822  18.882  1.00  0.00    +0.000 OA
BRANCH  10  12
ATOM     12  O   UNL     1      -7.701   0.824  17.331  1.00  0.00    +0.000 OA
ATOM     13  H   UNL     1      -7.706  -0.132  17.127  1.00  0.00    +0.000 HD
ENDBRANCH  10  12
ENDBRANCH   9  10
ENDBRANCH   6   9
TORSDOF 4
ENDMDL
MODEL 7
REMARK VINA RESULT:    -4.565      1.550      4.842
REMARK INTER + INTRA:          -5.433
REMARK INTER:                  -5.302
REMARK INTRA:                  -0.131
REMARK UNBOUND:                -0.067
REMARK  Name = 
REMARK  4 active torsions:
REMARK  status: ('A' for Active; 'I' for Inactive)
REMARK    1  A    between atoms: C_3  and  O_11
REMARK    2  A    between atoms: C_6  and  C_7
REMARK    3  A    between atoms: C_7  and  C_8
REMARK    4  A    between atoms: C_8  and  O_10
REMARK                            x       y       z     vdW  Elec       q    Type
REMARK                         _______ _______ _______ _____ _____    ______ ____
ROOT
ATOM      1  C   UNL     1      -3.858   3.382  13.501  1.00  0.00    +0.000 A 
ATOM      2  C   UNL     1      -3.977   4.747  13.230  1.00  0.00    +0.000 A 
ATOM      3  C   UNL     1      -5.025   5.468  13.794  1.00  0.00    +0.000 A 
ATOM      4  C   UNL     1      -5.950   4.848  14.624  1.00  0.00    +0.000 A 
ATOM      5  C   UNL     1      -5.833   3.484  14.897  1.00  0.00    +0.000 A 
ATOM      6  C   UNL     1      -4.787   2.738  14.334  1.00  0.00    +0.000 A 
ENDROOT
BRANCH   3   7
ATOM      7  O   UNL     1      -5.181   6.800  13.554  1.00  0.00    +0.000 OA
ATOM      8  H   UNL     1      -6.025   6.937  13.092  1.00  0.00    +0.000 HD
ENDBRANCH   3   7
BRANCH   6   9
ATOM      9  C   UNL     1      -4.678   1.254  14.593  1.00  0.00    +0.000 C 
BRANCH   9  10
ATOM     10  C   UNL     1      -4.731   0.841  16.048  1.00  0.00    +0.000 C 
ATOM     11  O   UNL     1      -5.733   0.355  16.559  1.00  0.00    +0.000 OA
BRANCH  10  12
ATOM     12  O   UNL     1      -3.582   0.975  16.746  1.00  0.00    +0.000 OA
ATOM     13  H   UNL     1      -2.897   0.313  16.530  1.00  0.00    +0.000 HD
ENDBRANCH  10  12
ENDBRANCH   9  10
ENDBRANCH   6   9
TORSDOF 4
ENDMDL
MODEL 8
REMARK VINA RESULT:    -4.492      3.000      3.556
REMARK INTER + INTRA:          -5.347
REMARK INTER:                  -5.249
REMARK INTRA:                  -0.097
REMARK UNBOUND:                -0.067
REMARK  Name = 
REMARK  4 active torsions:
REMARK  status: ('A' for Active; 'I' for Inactive)
REMARK    1  A    between atoms: C_3  and  O_11
REMARK    2  A    between atoms: C_6  and  C_7
REMARK    3  A    between atoms: C_7  and  C_8
REMARK    4  A    between atoms: C_8  and  O_10
REMARK                            x       y       z     vdW  Elec       q    Type
REMARK                         _______ _______ _______ _____ _____    ______ ____
ROOT
ATOM      1  C   UNL     1      -4.580   1.694  13.398  1.00  0.00    +0.000 A 
ATOM      2  C   UNL     1      -4.556   0.887  14.538  1.00  0.00    +0.000 A 
ATOM      3  C   UNL     1      -4.215   1.447  15.765  1.00  0.00    +0.000 A 
ATOM      4  C   UNL     1      -3.901   2.797  15.869  1.00  0.00    +0.000 A 
ATOM      5  C   UNL     1      -3.926   3.604  14.731  1.00  0.00    +0.000 A 
ATOM      6  C   UNL     1      -4.262   3.058  13.484  1.00  0.00    +0.000 A 
ENDROOT
BRANCH   3   7
ATOM      7  O   UNL     1      -4.175   0.699  16.902  1.00  0.00    +0.000 OA
ATOM      8  H   UNL     1      -4.485  -0.200  16.696  1.00  0.00    +0.000 HD
ENDBRANCH   3   7
BRANCH   6   9
ATOM      9  C   UNL     1      -4.250   3.917  12.241  1.00  0.00    +0.000 C 
BRANCH   9  10
ATOM     10  C   UNL     1      -3.950   3.189  10.948  1.00  0.00    +0.000 C 
ATOM     11  O   UNL     1      -2.828   2.788  10.664  1.00  0.00    +0.000 OA
BRANCH  10  12
ATOM     12  O   UNL     1      -5.009   2.941  10.147  1.00  0.00    +0.000 OA
ATOM     13  H   UNL     1      -5.450   2.084  10.311  1.00  0.00    +0.000 HD
ENDBRANCH  10  12
ENDBRANCH   9  10
ENDBRANCH   6   9
TORSDOF 4
ENDMDL
