REMARK  Name = 
REMARK  0 active torsions:
REMARK  status: ('A' for Active; 'I' for Inactive)
REMARK                            x       y       z     vdW  Elec       q    Type
REMARK                         _______ _______ _______ _____ _____    ______ ____
ROOT
ATOM      1  C   UNL     1       2.186  -0.676  -0.008  1.00  0.00    +0.000 A 
ATOM      2  C   UNL     1       2.145   0.717  -0.012  1.00  0.00    +0.000 A 
ATOM      3  C   UNL     1       0.927   1.403  -0.015  1.00  0.00    +0.000 A 
ATOM      4  C   UNL     1      -0.246   0.639  -0.015  1.00  0.00    +0.000 A 
ATOM      5  C   UNL     1      -0.236  -0.756  -0.011  1.00  0.00    +0.000 A 
ATOM      6  C   UNL     1       1.003  -1.425  -0.008  1.00  0.00    +0.000 A 
ATOM      7  C   UNL     1      -1.592  -1.185  -0.011  1.00  0.00    +0.000 A 
ATOM      8  C   UNL     1      -2.388  -0.061  -0.015  1.00  0.00    +0.000 A 
ATOM      9  N   UNL     1      -1.565   1.034  -0.017  1.00  0.00    +0.000 N 
ATOM     10  H   UNL     1      -1.874   1.996  -0.020  1.00  0.00    +0.000 HD
ENDROOT
TORSDOF 0
