MODEL 1
REMARK VINA RESULT:    -7.095      0.000      0.000
REMARK INTER + INTRA:          -7.095
REMARK INTER:                  -7.095
REMARK INTRA:                   0.000
REMARK UNBOUND:                 0.000
REMARK  Name = 
REMARK  0 active torsions:
REMARK  status: ('A' for Active; 'I' for Inactive)
REMARK                            x       y       z     vdW  Elec       q    Type
REMARK                         _______ _______ _______ _____ _____    ______ ____
ROOT
ATOM      1  C   UNL     1     -15.429  32.770 -28.928  1.00  0.00    +0.000 A 
ATOM      2  C   UNL     1     -16.152  33.819 -29.493  1.00  0.00    +0.000 A 
ATOM      3  C   UNL     1     -16.120  35.100 -28.935  1.00  0.00    +0.000 A 
ATOM      4  C   UNL     1     -15.338  35.288 -27.789  1.00  0.00    +0.000 A 
ATOM      5  C   UNL     1     -14.604  34.258 -27.201  1.00  0.00    +0.000 A 
ATOM      6  C   UNL     1     -14.651  32.975 -27.782  1.00  0.00    +0.000 A 
ATOM      7  C   UNL     1     -13.938  34.808 -26.072  1.00  0.00    +0.000 A 
ATOM      8  C   UNL     1     -14.275  36.142 -25.995  1.00  0.00    +0.000 A 
ATOM      9  N   UNL     1     -15.120  36.420 -27.036  1.00  0.00    +0.000 N 
ATOM     10  H   UNL     1     -15.528  37.324 -27.231  1.00  0.00    +0.000 HD
ENDROOT
TORSDOF 0
ENDMDL
MODEL 2
REMARK VINA RESULT:    -7.064      1.314      3.168
REMARK INTER + INTRA:          -7.064
REMARK INTER:                  -7.064
REMARK INTRA:                   0.000
REMARK UNBOUND:                 0.000
REMARK  Name = 
REMARK  0 active torsions:
REMARK  status: ('A' for Active; 'I' for Inactive)
REMARK                            x       y       z     vdW  Elec       q    Type
REMARK                         _______ _______ _______ _____ _____    ______ ____
ROOT
ATOM      1  C   UNL     1     -14.136  34.941 -26.280  1.00  0.00    +0.000 A 
ATOM      2  C   UNL     1     -14.776  36.117 -26.667  1.00  0.00    +0.000 A 
ATOM      3  C   UNL     1     -15.603  36.151 -27.794  1.00  0.00    +0.000 A 
ATOM      4  C   UNL     1     -15.761  34.962 -28.516  1.00  0.00    +0.000 A 
ATOM      5  C   UNL     1     -15.134  33.770 -28.152  1.00  0.00    +0.000 A 
ATOM      6  C   UNL     1     -14.306  33.761 -27.013  1.00  0.00    +0.000 A 
ATOM      7  C   UNL     1     -15.521  32.785 -29.102  1.00  0.00    +0.000 A 
ATOM      8  C   UNL     1     -16.363  33.387 -30.011  1.00  0.00    +0.000 A 
ATOM      9  N   UNL     1     -16.501  34.700 -29.648  1.00  0.00    +0.000 N 
ATOM     10  H   UNL     1     -17.063  35.384 -30.135  1.00  0.00    +0.000 HD
ENDROOT
TORSDOF 0
ENDMDL
MODEL 3
REMARK VINA RESULT:    -6.982      1.384      2.199
REMARK INTER + INTRA:          -6.982
REMARK INTER:                  -6.982
REMARK INTRA:                   0.000
REMARK UNBOUND:                 0.000
REMARK  Name = 
REMARK  0 active torsions:
REMARK  status: ('A' for Active; 'I' for Inactive)
REMARK                            x       y       z     vdW  Elec       q    Type
REMARK                         _______ _______ _______ _____ _____    ______ ____
ROOT
ATOM      1  C   UNL     1     -14.642  33.272 -27.778  1.00  0.00    +0.000 A 
ATOM      2  C   UNL     1     -15.385  32.997 -28.924  1.00  0.00    +0.000 A 
ATOM      3  C   UNL     1     -16.157  33.988 -29.539  1.00  0.00    +0.000 A 
ATOM      4  C   UNL     1     -16.155  35.262 -28.959  1.00  0.00    +0.000 A 
ATOM      5  C   UNL     1     -15.422  35.566 -27.812  1.00  0.00    +0.000 A 
ATOM      6  C   UNL     1     -14.652  34.552 -27.210  1.00  0.00    +0.000 A 
ATOM      7  C   UNL     1     -15.657  36.937 -27.515  1.00  0.00    +0.000 A 
ATOM      8  C   UNL     1     -16.515  37.432 -28.472  1.00  0.00    +0.000 A 
ATOM      9  N   UNL     1     -16.809  36.413 -29.339  1.00  0.00    +0.000 N 
ATOM     10  H   UNL     1     -17.417  36.487 -30.142  1.00  0.00    +0.000 HD
ENDROOT
TORSDOF 0
ENDMDL
MODEL 4
REMARK VINA RESULT:    -6.843      4.818      6.037
REMARK INTER + INTRA:          -6.843
REMARK INTER:                  -6.843
REMARK INTRA:                   0.000
REMARK UNBOUND:                 0.000
REMARK  Name = 
REMARK  0 active torsions:
REMARK  status: ('A' for Active; 'I' for Inactive)
REMARK                            x       y       z     vdW  Elec       q    Type
REMARK                         _______ _______ _______ _____ _____    ______ ____
ROOT
ATOM      1  C   UNL     1     -19.764  39.619 -30.248  1.00  0.00    +0.000 A 
ATOM      2  C   UNL     1     -19.256  40.879 -29.939  1.00  0.00    +0.000 A 
ATOM      3  C   UNL     1     -18.046  41.022 -29.255  1.00  0.00    +0.000 A 
ATOM      4  C   UNL     1     -17.365  39.854 -28.893  1.00  0.00    +0.000 A 
ATOM      5  C   UNL     1     -17.848  38.579 -29.188  1.00  0.00    +0.000 A 
ATOM      6  C   UNL     1     -19.070  38.460 -29.878  1.00  0.00    +0.000 A 
ATOM      7  C   UNL     1     -16.907  37.644 -28.676  1.00  0.00    +0.000 A 
ATOM      8  C   UNL     1     -15.885  38.357 -28.088  1.00  0.00    +0.000 A 
ATOM      9  N   UNL     1     -16.173  39.689 -28.225  1.00  0.00    +0.000 N 
ATOM     10  H   UNL     1     -15.597  40.448 -27.887  1.00  0.00    +0.000 HD
ENDROOT
TORSDOF 0
ENDMDL
MODEL 5
REMARK VINA RESULT:    -6.779      1.531      2.279
REMARK INTER + INTRA:          -6.779
REMARK INTER:                  -6.779
REMARK INTRA:                   0.000
REMARK UNBOUND:                 0.000
REMARK  Name = 
REMARK  0 active torsions:
REMARK  status: ('A' for Active; 'I' for Inactive)
REMARK                            x       y       z     vdW  Elec       q    Type
REMARK                         _______ _______ _______ _____ _____    ______ ____
ROOT
ATOM      1  C   UNL     1     -15.160  32.781 -28.500  1.00  0.00    +0.000 A 
ATOM      2  C   UNL     1     -15.143  31.958 -27.376  1.00  0.00    +0.000 A 
ATOM      3  C   UNL     1     -14.701  32.435 -26.138  1.00  0.00    +0.000 A 
ATOM      4  C   UNL     1     -14.276  33.768 -26.073  1.00  0.00    +0.000 A 
ATOM      5  C   UNL     1     -14.281  34.615 -27.181  1.00  0.00    +0.000 A 
ATOM      6  C   UNL     1     -14.731  34.112 -28.417  1.00  0.00    +0.000 A 
ATOM      7  C   UNL     1     -13.790  35.877 -26.747  1.00  0.00    +0.000 A 
ATOM      8  C   UNL     1     -13.500  35.775 -25.404  1.00  0.00    +0.000 A 
ATOM      9  N   UNL     1     -13.797  34.498 -25.008  1.00  0.00    +0.000 N 
ATOM     10  H   UNL     1     -13.684  34.136 -24.072  1.00  0.00    +0.000 HD
ENDROOT
TORSDOF 0
ENDMDL
MODEL 6
REMARK VINA RESULT:    -6.738      1.240      2.361
REMARK INTER + INTRA:          -6.738
REMARK INTER:                  -6.738
REMARK INTRA:                   0.000
REMARK UNBOUND:                 0.000
REMARK  Name = 
REMARK  0 active torsions:
REMARK  status: ('A' for Active; 'I' for Inactive)
REMARK                            x       y       z     vdW  Elec       q    Type
REMARK                         _______ _______ _______ _____ _____    ______ ____
ROOT
ATOM      1  C   UNL     1     -15.456  33.423 -28.807  1.00  0.00    +0.000 A 
ATOM      2  C   UNL     1     -14.581  33.374 -27.724  1.00  0.00    +0.000 A 
ATOM      3  C   UNL     1     -14.348  34.503 -26.933  1.00  0.00    +0.000 A 
ATOM      4  C   UNL     1     -15.024  35.681 -27.271  1.00  0.00    +0.000 A 
ATOM      5  C   UNL     1     -15.905  35.760 -28.349  1.00  0.00    +0.000 A 
ATOM      6  C   UNL     1     -16.125  34.610 -29.132  1.00  0.00    +0.000 A 
ATOM      7  C   UNL     1     -16.401  37.093 -28.389  1.00  0.00    +0.000 A 
ATOM      8  C   UNL     1     -15.820  37.787 -27.351  1.00  0.00    +0.000 A 
ATOM      9  N   UNL     1     -14.992  36.925 -26.683  1.00  0.00    +0.000 N 
ATOM     10  H   UNL     1     -14.434  37.161 -25.874  1.00  0.00    +0.000 HD
ENDROOT
TORSDOF 0
ENDMDL
MODEL 7
REMARK VINA RESULT:    -6.542      1.454      3.694
REMARK INTER + INTRA:          -6.542
REMARK INTER:                  -6.542
REMARK INTRA:                   0.000
REMARK UNBOUND:                 0.000
REMARK  Name = 
REMARK  0 active torsions:
REMARK  status: ('A' for Active; 'I' for Inactive)
REMARK                            x       y       z     vdW  Elec       q    Type
REMARK                         _______ _______ _______ _____ _____    ______ ____
ROOT
ATOM      1  C   UNL     1     -14.516  36.283 -26.287  1.00  0.00    +0.000 A 
ATOM      2  C   UNL     1     -13.908  35.214 -25.631  1.00  0.00    +0.000 A 
ATOM      3  C   UNL     1     -13.976  33.917 -26.148  1.00  0.00    +0.000 A 
ATOM      4  C   UNL     1     -14.678  33.733 -27.345  1.00  0.00    +0.000 A 
ATOM      5  C   UNL     1     -15.297  34.784 -28.024  1.00  0.00    +0.000 A 
ATOM      6  C   UNL     1     -15.215  36.081 -27.484  1.00  0.00    +0.000 A 
ATOM      7  C   UNL     1     -15.905  34.232 -29.185  1.00  0.00    +0.000 A 
ATOM      8  C   UNL     1     -15.649  32.879 -29.191  1.00  0.00    +0.000 A 
ATOM      9  N   UNL     1     -14.907  32.589 -28.076  1.00  0.00    +0.000 N 
ATOM     10  H   UNL     1     -14.573  31.671 -27.820  1.00  0.00    +0.000 HD
ENDROOT
TORSDOF 0
ENDMDL
MODEL 8
REMARK VINA RESULT:    -6.533      4.775      6.586
REMARK INTER + INTRA:          -6.533
REMARK INTER:                  -6.533
REMARK INTRA:                   0.000
REMARK UNBOUND:                 0.000
REMARK  Name = 
REMARK  0 active torsions:
REMARK  status: ('A' for Active; 'I' for Inactive)
REMARK                            x       y       z     vdW  Elec       q    Type
REMARK                         _______ _______ _______ _____ _____    ______ ____
ROOT
ATOM      1  C   UNL     1     -18.024  41.139 -28.945  1.00  0.00    +0.000 A 
ATOM      2  C   UNL     1     -16.886  40.568 -28.377  1.00  0.00    +0.000 A 
ATOM      3  C   UNL     1     -16.599  39.211 -28.546  1.00  0.00    +0.000 A 
ATOM      4  C   UNL     1     -17.496  38.449 -29.304  1.00  0.00    +0.000 A 
ATOM      5  C   UNL     1     -18.642  38.992 -29.884  1.00  0.00    +0.000 A 
ATOM      6  C   UNL     1     -18.911  40.362 -29.700  1.00  0.00    +0.000 A 
ATOM      7  C   UNL     1     -19.305  37.938 -30.571  1.00  0.00    +0.000 A 
ATOM      8  C   UNL     1     -18.561  36.792 -30.399  1.00  0.00    +0.000 A 
ATOM      9  N   UNL     1     -17.471  37.112 -29.633  1.00  0.00    +0.000 N 
ATOM     10  H   UNL     1     -16.749  36.466 -29.346  1.00  0.00    +0.000 HD
ENDROOT
TORSDOF 0
ENDMDL
MODEL 9
REMARK VINA RESULT:    -6.353      5.314      7.095
REMARK INTER + INTRA:          -6.353
REMARK INTER:                  -6.353
REMARK INTRA:                   0.000
REMARK UNBOUND:                 0.000
REMARK  Name = 
REMARK  0 active torsions:
REMARK  status: ('A' for Active; 'I' for Inactive)
REMARK                            x       y       z     vdW  Elec       q    Type
REMARK                         _______ _______ _______ _____ _____    ______ ____
ROOT
ATOM      1  C   UNL     1     -20.327  40.475 -31.100  1.00  0.00    +0.000 A 
ATOM      2  C   UNL     1     -19.494  40.837 -30.043  1.00  0.00    +0.000 A 
ATOM      3  C   UNL     1     -18.613  39.916 -29.469  1.00  0.00    +0.000 A 
ATOM      4  C   UNL     1     -18.600  38.619 -29.996  1.00  0.00    +0.000 A 
ATOM      5  C   UNL     1     -19.422  38.227 -31.053  1.00  0.00    +0.000 A 
ATOM      6  C   UNL     1     -20.301  39.173 -31.614  1.00  0.00    +0.000 A 
ATOM      7  C   UNL     1     -19.140  36.858 -31.318  1.00  0.00    +0.000 A 
ATOM      8  C   UNL     1     -18.169  36.450 -30.432  1.00  0.00    +0.000 A 
ATOM      9  N   UNL     1     -17.850  37.521 -29.639  1.00  0.00    +0.000 N 
ATOM     10  H   UNL     1     -17.164  37.513 -28.897  1.00  0.00    +0.000 HD
ENDROOT
TORSDOF 0
ENDMDL
