MODEL 1
REMARK VINA RESULT:    -8.929      0.000      0.000
REMARK INTER + INTRA:         -11.243
REMARK INTER:                 -11.017
REMARK INTRA:                  -0.226
REMARK UNBOUND:                -0.226
REMARK  Name = 
REMARK  5 active torsions:
REMARK  status: ('A' for Active; 'I' for Inactive)
REMARK    1  A    between atoms: CG_7  and  CB_10
REMARK    2  A    between atoms: CB_10  and  CA_11
REMARK    3  A    between atoms: CA_11  and  C_12
REMARK    4  A    between atoms: CA_11  and  N_15
REMARK    5  A    between atoms: C_12  and  OXT_14
REMARK                            x       y       z     vdW  Elec       q    Type
REMARK                         _______ _______ _______ _____ _____    ______ ____
ROOT
ATOM      1  CZ3 TRP A   1      10.343   8.645  14.693  1.00  0.00    +0.000 A 
ATOM      2  CH2 TRP A   1       9.722   9.889  14.618  1.00  0.00    +0.000 A 
ATOM      3  CZ2 TRP A   1       9.373  10.447  13.385  1.00  0.00    +0.000 A 
ATOM      4  CE2 TRP A   1       9.666   9.708  12.232  1.00  0.00    +0.000 A 
ATOM      5  CD2 TRP A   1      10.279   8.456  12.274  1.00  0.00    +0.000 A 
ATOM      6  CE3 TRP A   1      10.628   7.920  13.531  1.00  0.00    +0.000 A 
ATOM      7  CG  TRP A   1      10.394   7.990  10.925  1.00  0.00    +0.000 A 
ATOM      8  CD1 TRP A   1       9.874   8.979  10.115  1.00  0.00    +0.000 A 
ATOM      9  NE1 TRP A   1       9.450  10.011  10.909  1.00  0.00    +0.000 N 
ATOM     10  HE1 TRP A   1       9.033  10.871  10.576  1.00  0.00    +0.000 HD
ENDROOT
BRANCH   7  11
ATOM     11  CB  TRP A   1      10.950   6.671  10.472  1.00  0.00    +0.000 C 
BRANCH  11  12
ATOM     12  CA  TRP A   1      10.834   6.462   8.954  1.00  0.00    +0.000 C 
BRANCH  12  13
ATOM     13  N   TRP A   1       9.903   5.336   8.669  1.00  0.00    +0.000 NA
ATOM     14  H1  TRP A   1      10.411   4.463   8.850  1.00  0.00    +0.000 HD
ATOM     15  H2  TRP A   1       9.745   5.307   7.658  1.00  0.00    +0.000 HD
ENDBRANCH  12  13
BRANCH  12  16
ATOM     16  C   TRP A   1      12.210   6.151   8.338  1.00  0.00    +0.000 C 
ATOM     17  O   TRP A   1      13.031   7.010   8.037  1.00  0.00    +0.000 OA
BRANCH  16  18
ATOM     18  OXT TRP A   1      12.466   4.832   8.183  1.00  0.00    +0.000 OA
ATOM     19  HXT TRP A   1      12.238   4.485   7.295  1.00  0.00    +0.000 HD
ENDBRANCH  16  18
ENDBRANCH  12  16
ENDBRANCH  11  12
ENDBRANCH   7  11
TORSDOF 5
ENDMDL
MODEL 2
REMARK VINA RESULT:    -8.284      4.624      6.722
REMARK INTER + INTRA:         -10.448
REMARK INTER:                 -10.201
REMARK INTRA:                  -0.247
REMARK UNBOUND:                -0.226
REMARK  Name = 
REMARK  5 active torsions:
REMARK  status: ('A' for Active; 'I' for Inactive)
REMARK    1  A    between atoms: CG_7  and  CB_10
REMARK    2  A    between atoms: CB_10  and  CA_11
REMARK    3  A    between atoms: CA_11  and  C_12
REMARK    4  A    between atoms: CA_11  and  N_15
REMARK    5  A    between atoms: C_12  and  OXT_14
REMARK                            x       y       z     vdW  Elec       q    Type
REMARK                         _______ _______ _______ _____ _____    ______ ____
ROOT
ATOM      1  CZ3 TRP A   1      11.415   7.086  12.172  1.00  0.00    +0.000 A 
ATOM      2  CH2 TRP A   1      11.174   7.474  10.857  1.00  0.00    +0.000 A 
ATOM      3  CZ2 TRP A   1      10.414   8.611  10.567  1.00  0.00    +0.000 A 
ATOM      4  CE2 TRP A   1       9.911   9.346  11.647  1.00  0.00    +0.000 A 
ATOM      5  CD2 TRP A   1      10.142   8.990  12.976  1.00  0.00    +0.000 A 
ATOM      6  CE3 TRP A   1      10.905   7.834  13.240  1.00  0.00    +0.000 A 
ATOM      7  CG  TRP A   1       9.508   9.975  13.800  1.00  0.00    +0.000 A 
ATOM      8  CD1 TRP A   1       8.898  10.875  12.949  1.00  0.00    +0.000 A 
ATOM      9  NE1 TRP A   1       9.137  10.482  11.659  1.00  0.00    +0.000 N 
ATOM     10  HE1 TRP A   1       8.799  10.957  10.832  1.00  0.00    +0.000 HD
ENDROOT
BRANCH   7  11
ATOM     11  CB  TRP A   1       9.521  10.039  15.299  1.00  0.00    +0.000 C 
BRANCH  11  12
ATOM     12  CA  TRP A   1       9.956  11.411  15.838  1.00  0.00    +0.000 C 
BRANCH  12  13
ATOM     13  N   TRP A   1      11.021  11.238  16.862  1.00  0.00    +0.000 NA
ATOM     14  H1  TRP A   1      10.564  11.221  17.781  1.00  0.00    +0.000 HD
ATOM     15  H2  TRP A   1      11.572  12.100  16.893  1.00  0.00    +0.000 HD
ENDBRANCH  12  13
BRANCH  12  16
ATOM     16  C   TRP A   1       8.764  12.156  16.465  1.00  0.00    +0.000 C 
ATOM     17  O   TRP A   1       7.927  12.771  15.814  1.00  0.00    +0.000 OA
BRANCH  16  18
ATOM     18  OXT TRP A   1       8.686  12.049  17.811  1.00  0.00    +0.000 OA
ATOM     19  HXT TRP A   1       9.452  11.592  18.217  1.00  0.00    +0.000 HD
ENDBRANCH  16  18
ENDBRANCH  12  16
ENDBRANCH  11  12
ENDBRANCH   7  11
TORSDOF 5
ENDMDL
MODEL 3
REMARK VINA RESULT:    -8.239      5.825      8.054
REMARK INTER + INTRA:         -10.392
REMARK INTER:                 -10.178
REMARK INTRA:                  -0.214
REMARK UNBOUND:                -0.226
REMARK  Name = 
REMARK  5 active torsions:
REMARK  status: ('A' for Active; 'I' for Inactive)
REMARK    1  A    between atoms: CG_7  and  CB_10
REMARK    2  A    between atoms: CB_10  and  CA_11
REMARK    3  A    between atoms: CA_11  and  C_12
REMARK    4  A    between atoms: CA_11  and  N_15
REMARK    5  A    between atoms: C_12  and  OXT_14
REMARK                            x       y       z     vdW  Elec       q    Type
REMARK                         _______ _______ _______ _____ _____    ______ ____
ROOT
ATOM      1  CZ3 TRP A   1      10.705   8.211  13.983  1.00  0.00    +0.000 A 
ATOM      2  CH2 TRP A   1      10.438   8.365  12.625  1.00  0.00    +0.000 A 
ATOM      3  CZ2 TRP A   1       9.726   9.470  12.151  1.00  0.00    +0.000 A 
ATOM      4  CE2 TRP A   1       9.299  10.418  13.089  1.00  0.00    +0.000 A 
ATOM      5  CD2 TRP A   1       9.558  10.298  14.454  1.00  0.00    +0.000 A 
ATOM      6  CE3 TRP A   1      10.271   9.168  14.907  1.00  0.00    +0.000 A 
ATOM      7  CG  TRP A   1       9.004  11.450  15.098  1.00  0.00    +0.000 A 
ATOM      8  CD1 TRP A   1       8.410  12.212  14.112  1.00  0.00    +0.000 A 
ATOM      9  NE1 TRP A   1       8.583  11.577  12.912  1.00  0.00    +0.000 N 
ATOM     10  HE1 TRP A   1       8.241  11.911  12.020  1.00  0.00    +0.000 HD
ENDROOT
BRANCH   7  11
ATOM     11  CB  TRP A   1       9.073  11.786  16.560  1.00  0.00    +0.000 C 
BRANCH  11  12
ATOM     12  CA  TRP A   1       8.441  13.146  16.893  1.00  0.00    +0.000 C 
BRANCH  12  13
ATOM     13  N   TRP A   1       9.494  14.097  17.343  1.00  0.00    +0.000 NA
ATOM     14  H1  TRP A   1      10.183  13.559  17.881  1.00  0.00    +0.000 HD
ATOM     15  H2  TRP A   1       9.080  14.713  18.048  1.00  0.00    +0.000 HD
ENDBRANCH  12  13
BRANCH  12  16
ATOM     16  C   TRP A   1       7.380  13.001  18.000  1.00  0.00    +0.000 C 
ATOM     17  O   TRP A   1       7.628  12.599  19.131  1.00  0.00    +0.000 OA
BRANCH  16  18
ATOM     18  OXT TRP A   1       6.138  13.392  17.636  1.00  0.00    +0.000 OA
ATOM     19  HXT TRP A   1       5.677  12.753  17.053  1.00  0.00    +0.000 HD
ENDBRANCH  16  18
ENDBRANCH  12  16
ENDBRANCH  11  12
ENDBRANCH   7  11
TORSDOF 5
ENDMDL
MODEL 4
REMARK VINA RESULT:    -8.145      2.023      2.989
REMARK INTER + INTRA:         -10.276
REMARK INTER:                 -10.159
REMARK INTRA:                  -0.117
REMARK UNBOUND:                -0.226
REMARK  Name = 
REMARK  5 active torsions:
REMARK  status: ('A' for Active; 'I' for Inactive)
REMARK    1  A    between atoms: CG_7  and  CB_10
REMARK    2  A    between atoms: CB_10  and  CA_11
REMARK    3  A    between atoms: CA_11  and  C_12
REMARK    4  A    between atoms: CA_11  and  N_15
REMARK    5  A    between atoms: C_12  and  OXT_14
REMARK                            x       y       z     vdW  Elec       q    Type
REMARK                         _______ _______ _______ _____ _____    ______ ____
ROOT
ATOM      1  CZ3 TRP A   1       9.848  10.853  16.773  1.00  0.00    +0.000 A 
ATOM      2  CH2 TRP A   1       8.994  11.919  16.502  1.00  0.00    +0.000 A 
ATOM      3  CZ2 TRP A   1       8.529  12.160  15.206  1.00  0.00    +0.000 A 
ATOM      4  CE2 TRP A   1       8.949  11.287  14.194  1.00  0.00    +0.000 A 
ATOM      5  CD2 TRP A   1       9.796  10.206  14.434  1.00  0.00    +0.000 A 
ATOM      6  CE3 TRP A   1      10.257   9.990  15.749  1.00  0.00    +0.000 A 
ATOM      7  CG  TRP A   1       9.985   9.526  13.188  1.00  0.00    +0.000 A 
ATOM      8  CD1 TRP A   1       9.271  10.228  12.237  1.00  0.00    +0.000 A 
ATOM      9  NE1 TRP A   1       8.662  11.290  12.850  1.00  0.00    +0.000 N 
ATOM     10  HE1 TRP A   1       8.081  11.976  12.387  1.00  0.00    +0.000 HD
ENDROOT
BRANCH   7  11
ATOM     11  CB  TRP A   1      10.783   8.276  12.956  1.00  0.00    +0.000 C 
BRANCH  11  12
ATOM     12  CA  TRP A   1      10.390   7.544  11.664  1.00  0.00    +0.000 C 
BRANCH  12  13
ATOM     13  N   TRP A   1      10.303   6.080  11.918  1.00  0.00    +0.000 NA
ATOM     14  H1  TRP A   1       9.553   5.931  12.602  1.00  0.00    +0.000 HD
ATOM     15  H2  TRP A   1      11.144   5.800  12.430  1.00  0.00    +0.000 HD
ENDBRANCH  12  13
BRANCH  12  16
ATOM     16  C   TRP A   1      11.420   7.806  10.550  1.00  0.00    +0.000 C 
ATOM     17  O   TRP A   1      11.674   7.007   9.656  1.00  0.00    +0.000 OA
BRANCH  16  18
ATOM     18  OXT TRP A   1      12.009   9.023  10.611  1.00  0.00    +0.000 OA
ATOM     19  HXT TRP A   1      11.813   9.596   9.842  1.00  0.00    +0.000 HD
ENDBRANCH  16  18
ENDBRANCH  12  16
ENDBRANCH  11  12
ENDBRANCH   7  11
TORSDOF 5
ENDMDL
MODEL 5
REMARK VINA RESULT:    -8.138      6.712      9.201
REMARK INTER + INTRA:         -10.267
REMARK INTER:                 -10.001
REMARK INTRA:                  -0.266
REMARK UNBOUND:                -0.226
REMARK  Name = 
REMARK  5 active torsions:
REMARK  status: ('A' for Active; 'I' for Inactive)
REMARK    1  A    between atoms: CG_7  and  CB_10
REMARK    2  A    between atoms: CB_10  and  CA_11
REMARK    3  A    between atoms: CA_11  and  C_12
REMARK    4  A    between atoms: CA_11  and  N_15
REMARK    5  A    between atoms: C_12  and  OXT_14
REMARK                            x       y       z     vdW  Elec       q    Type
REMARK                         _______ _______ _______ _____ _____    ______ ____
ROOT
ATOM      1  CZ3 TRP A   1      10.213   9.772  15.702  1.00  0.00    +0.000 A 
ATOM      2  CH2 TRP A   1       9.911   9.460  14.379  1.00  0.00    +0.000 A 
ATOM      3  CZ2 TRP A   1       9.228  10.366  13.563  1.00  0.00    +0.000 A 
ATOM      4  CE2 TRP A   1       8.864  11.597  14.122  1.00  0.00    +0.000 A 
ATOM      5  CD2 TRP A   1       9.159  11.943  15.440  1.00  0.00    +0.000 A 
ATOM      6  CE3 TRP A   1       9.843  11.008  16.245  1.00  0.00    +0.000 A 
ATOM      7  CG  TRP A   1       8.669  13.271  15.655  1.00  0.00    +0.000 A 
ATOM      8  CD1 TRP A   1       8.075  13.673  14.475  1.00  0.00    +0.000 A 
ATOM      9  NE1 TRP A   1       8.188  12.656  13.565  1.00  0.00    +0.000 N 
ATOM     10  HE1 TRP A   1       7.832  12.677  12.619  1.00  0.00    +0.000 HD
ENDROOT
BRANCH   7  11
ATOM     11  CB  TRP A   1       8.794  14.086  16.909  1.00  0.00    +0.000 C 
BRANCH  11  12
ATOM     12  CA  TRP A   1       7.808  15.263  16.960  1.00  0.00    +0.000 C 
BRANCH  12  13
ATOM     13  N   TRP A   1       8.485  16.467  17.513  1.00  0.00    +0.000 NA
ATOM     14  H1  TRP A   1       8.682  16.282  18.503  1.00  0.00    +0.000 HD
ATOM     15  H2  TRP A   1       7.798  17.225  17.552  1.00  0.00    +0.000 HD
ENDBRANCH  12  13
BRANCH  12  16
ATOM     16  C   TRP A   1       6.589  14.919  17.836  1.00  0.00    +0.000 C 
ATOM     17  O   TRP A   1       6.602  14.947  19.061  1.00  0.00    +0.000 OA
BRANCH  16  18
ATOM     18  OXT TRP A   1       5.471  14.613  17.139  1.00  0.00    +0.000 OA
ATOM     19  HXT TRP A   1       5.428  15.032  16.254  1.00  0.00    +0.000 HD
ENDBRANCH  16  18
ENDBRANCH  12  16
ENDBRANCH  11  12
ENDBRANCH   7  11
TORSDOF 5
ENDMDL
MODEL 6
REMARK VINA RESULT:    -8.064      4.975      7.358
REMARK INTER + INTRA:         -10.176
REMARK INTER:                 -10.141
REMARK INTRA:                  -0.035
REMARK UNBOUND:                -0.226
REMARK  Name = 
REMARK  5 active torsions:
REMARK  status: ('A' for Active; 'I' for Inactive)
REMARK    1  A    between atoms: CG_7  and  CB_10
REMARK    2  A    between atoms: CB_10  and  CA_11
REMARK    3  A    between atoms: CA_11  and  C_12
REMARK    4  A    between atoms: CA_11  and  N_15
REMARK    5  A    between atoms: C_12  and  OXT_14
REMARK                            x       y       z     vdW  Elec       q    Type
REMARK                         _______ _______ _______ _____ _____    ______ ____
ROOT
ATOM      1  CZ3 TRP A   1       9.964   9.127  11.349  1.00  0.00    +0.000 A 
ATOM      2  CH2 TRP A   1      10.576   7.986  11.862  1.00  0.00    +0.000 A 
ATOM      3  CZ2 TRP A   1      10.727   7.806  13.239  1.00  0.00    +0.000 A 
ATOM      4  CE2 TRP A   1      10.234   8.809  14.082  1.00  0.00    +0.000 A 
ATOM      5  CD2 TRP A   1       9.607   9.958  13.602  1.00  0.00    +0.000 A 
ATOM      6  CE3 TRP A   1       9.476  10.119  12.206  1.00  0.00    +0.000 A 
ATOM      7  CG  TRP A   1       9.211  10.737  14.736  1.00  0.00    +0.000 A 
ATOM      8  CD1 TRP A   1       9.630  10.050  15.858  1.00  0.00    +0.000 A 
ATOM      9  NE1 TRP A   1      10.253   8.900  15.454  1.00  0.00    +0.000 N 
ATOM     10  HE1 TRP A   1      10.664   8.211  16.070  1.00  0.00    +0.000 HD
ENDROOT
BRANCH   7  11
ATOM     11  CB  TRP A   1       8.462  12.037  14.719  1.00  0.00    +0.000 C 
BRANCH  11  12
ATOM     12  CA  TRP A   1       9.294  13.215  15.249  1.00  0.00    +0.000 C 
BRANCH  12  13
ATOM     13  N   TRP A   1       9.304  13.198  16.737  1.00  0.00    +0.000 NA
ATOM     14  H1  TRP A   1      10.021  13.864  17.047  1.00  0.00    +0.000 HD
ATOM     15  H2  TRP A   1       9.680  12.295  17.039  1.00  0.00    +0.000 HD
ENDBRANCH  12  13
BRANCH  12  16
ATOM     16  C   TRP A   1       8.717  14.557  14.761  1.00  0.00    +0.000 C 
ATOM     17  O   TRP A   1       7.887  15.208  15.384  1.00  0.00    +0.000 OA
BRANCH  16  18
ATOM     18  OXT TRP A   1       9.232  14.990  13.588  1.00  0.00    +0.000 OA
ATOM     19  HXT TRP A   1       9.492  14.268  12.979  1.00  0.00    +0.000 HD
ENDBRANCH  16  18
ENDBRANCH  12  16
ENDBRANCH  11  12
ENDBRANCH   7  11
TORSDOF 5
ENDMDL
MODEL 7
REMARK VINA RESULT:    -7.963      4.234      6.074
REMARK INTER + INTRA:         -10.051
REMARK INTER:                  -9.790
REMARK INTRA:                  -0.261
REMARK UNBOUND:                -0.226
REMARK  Name = 
REMARK  5 active torsions:
REMARK  status: ('A' for Active; 'I' for Inactive)
REMARK    1  A    between atoms: CG_7  and  CB_10
REMARK    2  A    between atoms: CB_10  and  CA_11
REMARK    3  A    between atoms: CA_11  and  C_12
REMARK    4  A    between atoms: CA_11  and  N_15
REMARK    5  A    between atoms: C_12  and  OXT_14
REMARK                            x       y       z     vdW  Elec       q    Type
REMARK                         _______ _______ _______ _____ _____    ______ ____
ROOT
ATOM      1  CZ3 TRP A   1       8.062  12.384  18.712  1.00  0.00    +0.000 A 
ATOM      2  CH2 TRP A   1       7.159  13.434  18.562  1.00  0.00    +0.000 A 
ATOM      3  CZ2 TRP A   1       6.920  14.006  17.310  1.00  0.00    +0.000 A 
ATOM      4  CE2 TRP A   1       7.616  13.482  16.214  1.00  0.00    +0.000 A 
ATOM      5  CD2 TRP A   1       8.520  12.426  16.329  1.00  0.00    +0.000 A 
ATOM      6  CE3 TRP A   1       8.749  11.872  17.606  1.00  0.00    +0.000 A 
ATOM      7  CG  TRP A   1       9.014  12.139  15.016  1.00  0.00    +0.000 A 
ATOM      8  CD1 TRP A   1       8.416  13.042  14.159  1.00  0.00    +0.000 A 
ATOM      9  NE1 TRP A   1       7.588  13.850  14.890  1.00  0.00    +0.000 N 
ATOM     10  HE1 TRP A   1       7.029  14.606  14.515  1.00  0.00    +0.000 HD
ENDROOT
BRANCH   7  11
ATOM     11  CB  TRP A   1       9.977  11.054  14.632  1.00  0.00    +0.000 C 
BRANCH  11  12
ATOM     12  CA  TRP A   1       9.299   9.877  13.913  1.00  0.00    +0.000 C 
BRANCH  12  13
ATOM     13  N   TRP A   1       9.578   8.610  14.641  1.00  0.00    +0.000 NA
ATOM     14  H1  TRP A   1      10.515   8.692  15.051  1.00  0.00    +0.000 HD
ATOM     15  H2  TRP A   1       9.693   7.867  13.947  1.00  0.00    +0.000 HD
ENDBRANCH  12  13
BRANCH  12  16
ATOM     16  C   TRP A   1       9.808   9.754  12.465  1.00  0.00    +0.000 C 
ATOM     17  O   TRP A   1      10.742   9.034  12.131  1.00  0.00    +0.000 OA
BRANCH  16  18
ATOM     18  OXT TRP A   1       9.111  10.485  11.565  1.00  0.00    +0.000 OA
ATOM     19  HXT TRP A   1       9.067  10.079  10.675  1.00  0.00    +0.000 HD
ENDBRANCH  16  18
ENDBRANCH  12  16
ENDBRANCH  11  12
ENDBRANCH   7  11
TORSDOF 5
ENDMDL
MODEL 8
REMARK VINA RESULT:    -7.954      3.371      5.848
REMARK INTER + INTRA:         -10.040
REMARK INTER:                  -9.799
REMARK INTRA:                  -0.241
REMARK UNBOUND:                -0.226
REMARK  Name = 
REMARK  5 active torsions:
REMARK  status: ('A' for Active; 'I' for Inactive)
REMARK    1  A    between atoms: CG_7  and  CB_10
REMARK    2  A    between atoms: CB_10  and  CA_11
REMARK    3  A    between atoms: CA_11  and  C_12
REMARK    4  A    between atoms: CA_11  and  N_15
REMARK    5  A    between atoms: C_12  and  OXT_14
REMARK                            x       y       z     vdW  Elec       q    Type
REMARK                         _______ _______ _______ _____ _____    ______ ____
ROOT
ATOM      1  CZ3 TRP A   1      12.877   8.284   8.154  1.00  0.00    +0.000 A 
ATOM      2  CH2 TRP A   1      12.759   6.972   7.703  1.00  0.00    +0.000 A 
ATOM      3  CZ2 TRP A   1      12.137   5.994   8.484  1.00  0.00    +0.000 A 
ATOM      4  CE2 TRP A   1      11.633   6.384   9.731  1.00  0.00    +0.000 A 
ATOM      5  CD2 TRP A   1      11.727   7.691  10.208  1.00  0.00    +0.000 A 
ATOM      6  CE3 TRP A   1      12.367   8.657   9.403  1.00  0.00    +0.000 A 
ATOM      7  CG  TRP A   1      11.086   7.728  11.487  1.00  0.00    +0.000 A 
ATOM      8  CD1 TRP A   1      10.651   6.445  11.753  1.00  0.00    +0.000 A 
ATOM      9  NE1 TRP A   1      10.994   5.644  10.697  1.00  0.00    +0.000 N 
ATOM     10  HE1 TRP A   1      10.803   4.653  10.630  1.00  0.00    +0.000 HD
ENDROOT
BRANCH   7  11
ATOM     11  CB  TRP A   1      10.898   8.930  12.367  1.00  0.00    +0.000 C 
BRANCH  11  12
ATOM     12  CA  TRP A   1       9.461   9.474  12.339  1.00  0.00    +0.000 C 
BRANCH  12  13
ATOM     13  N   TRP A   1       9.200  10.148  11.038  1.00  0.00    +0.000 NA
ATOM     14  H1  TRP A   1       9.925  10.863  10.912  1.00  0.00    +0.000 HD
ATOM     15  H2  TRP A   1       8.344  10.700  11.136  1.00  0.00    +0.000 HD
ENDBRANCH  12  13
BRANCH  12  16
ATOM     16  C   TRP A   1       9.233  10.476  13.485  1.00  0.00    +0.000 C 
ATOM     17  O   TRP A   1       9.559  10.267  14.648  1.00  0.00    +0.000 OA
BRANCH  16  18
ATOM     18  OXT TRP A   1       8.668  11.643  13.100  1.00  0.00    +0.000 OA
ATOM     19  HXT TRP A   1       8.047  11.553  12.348  1.00  0.00    +0.000 HD
ENDBRANCH  16  18
ENDBRANCH  12  16
ENDBRANCH  11  12
ENDBRANCH   7  11
TORSDOF 5
ENDMDL
MODEL 9
REMARK VINA RESULT:    -7.490      2.177      2.755
REMARK INTER + INTRA:          -9.468
REMARK INTER:                  -9.226
REMARK INTRA:                  -0.241
REMARK UNBOUND:                -0.226
REMARK  Name = 
REMARK  5 active torsions:
REMARK  status: ('A' for Active; 'I' for Inactive)
REMARK    1  A    between atoms: CG_7  and  CB_10
REMARK    2  A    between atoms: CB_10  and  CA_11
REMARK    3  A    between atoms: CA_11  and  C_12
REMARK    4  A    between atoms: CA_11  and  N_15
REMARK    5  A    between atoms: C_12  and  OXT_14
REMARK                            x       y       z     vdW  Elec       q    Type
REMARK                         _______ _______ _______ _____ _____    ______ ____
ROOT
ATOM      1  CZ3 TRP A   1       9.176  10.649  13.877  1.00  0.00    +0.000 A 
ATOM      2  CH2 TRP A   1       9.697   9.857  14.897  1.00  0.00    +0.000 A 
ATOM      3  CZ2 TRP A   1      10.352   8.655  14.614  1.00  0.00    +0.000 A 
ATOM      4  CE2 TRP A   1      10.471   8.283  13.269  1.00  0.00    +0.000 A 
ATOM      5  CD2 TRP A   1       9.969   9.058  12.224  1.00  0.00    +0.000 A 
ATOM      6  CE3 TRP A   1       9.305  10.262  12.538  1.00  0.00    +0.000 A 
ATOM      7  CG  TRP A   1      10.295   8.390  11.000  1.00  0.00    +0.000 A 
ATOM      8  CD1 TRP A   1      10.957   7.228  11.344  1.00  0.00    +0.000 A 
ATOM      9  NE1 TRP A   1      11.047   7.168  12.708  1.00  0.00    +0.000 N 
ATOM     10  HE1 TRP A   1      11.478   6.418  13.233  1.00  0.00    +0.000 HD
ENDROOT
BRANCH   7  11
ATOM     11  CB  TRP A   1      10.000   8.866   9.608  1.00  0.00    +0.000 C 
BRANCH  11  12
ATOM     12  CA  TRP A   1      10.829   8.140   8.537  1.00  0.00    +0.000 C 
BRANCH  12  13
ATOM     13  N   TRP A   1      11.676   9.118   7.803  1.00  0.00    +0.000 NA
ATOM     14  H1  TRP A   1      11.138   9.988   7.718  1.00  0.00    +0.000 HD
ATOM     15  H2  TRP A   1      11.755   8.800   6.833  1.00  0.00    +0.000 HD
ENDBRANCH  12  13
BRANCH  12  16
ATOM     16  C   TRP A   1       9.913   7.410   7.538  1.00  0.00    +0.000 C 
ATOM     17  O   TRP A   1       9.199   6.459   7.837  1.00  0.00    +0.000 OA
BRANCH  16  18
ATOM     18  OXT TRP A   1       9.927   7.927   6.289  1.00  0.00    +0.000 OA
ATOM     19  HXT TRP A   1      10.732   7.705   5.777  1.00  0.00    +0.000 HD
ENDBRANCH  16  18
ENDBRANCH  12  16
ENDBRANCH  11  12
ENDBRANCH   7  11
TORSDOF 5
ENDMDL
