REMARK  Name = 
REMARK  5 active torsions:
REMARK  status: ('A' for Active; 'I' for Inactive)
REMARK    1  A    between atoms: CG_7  and  CB_10
REMARK    2  A    between atoms: CB_10  and  CA_11
REMARK    3  A    between atoms: CA_11  and  C_12
REMARK    4  A    between atoms: CA_11  and  N_15
REMARK    5  A    between atoms: C_12  and  OXT_14
REMARK                            x       y       z     vdW  Elec       q    Type
REMARK                         _______ _______ _______ _____ _____    ______ ____
ROOT
ATOM      1  CZ3 TRP A   1       2.301  -0.106  -1.247  1.00  0.00    +0.000 A 
ATOM      2  CH2 TRP A   1       2.194   1.201  -0.779  1.00  0.00    +0.000 A 
ATOM      3  CZ2 TRP A   1       1.035   1.644  -0.136  1.00  0.00    +0.000 A 
ATOM      4  CE2 TRP A   1      -0.009   0.725   0.025  1.00  0.00    +0.000 A 
ATOM      5  CD2 TRP A   1       0.070  -0.593  -0.424  1.00  0.00    +0.000 A 
ATOM      6  CE3 TRP A   1       1.248  -1.012  -1.077  1.00  0.00    +0.000 A 
ATOM      7  CG  TRP A   1      -1.155  -1.242  -0.066  1.00  0.00    +0.000 A 
ATOM      8  CD1 TRP A   1      -1.940  -0.295   0.561  1.00  0.00    +0.000 A 
ATOM      9  NE1 TRP A   1      -1.247   0.885   0.600  1.00  0.00    +0.000 N 
ATOM     10  HE1 TRP A   1      -1.589   1.750   0.998  1.00  0.00    +0.000 HD
ENDROOT
BRANCH   7  11
ATOM     11  CB  TRP A   1      -1.515  -2.680  -0.301  1.00  0.00    +0.000 C 
BRANCH  11  12
ATOM     12  CA  TRP A   1      -0.733  -3.649   0.599  1.00  0.00    +0.000 C 
BRANCH  12  13
ATOM     13  N   TRP A   1      -0.921  -5.046   0.122  1.00  0.00    +0.000 NA
ATOM     14  H1  TRP A   1      -1.906  -5.292   0.272  1.00  0.00    +0.000 HD
ATOM     15  H2  TRP A   1      -0.426  -5.668   0.767  1.00  0.00    +0.000 HD
ENDBRANCH  12  13
BRANCH  12  16
ATOM     16  C   TRP A   1      -1.207  -3.543   2.060  1.00  0.00    +0.000 C 
ATOM     17  O   TRP A   1      -1.967  -4.346   2.589  1.00  0.00    +0.000 OA
BRANCH  16  18
ATOM     18  OXT TRP A   1      -0.684  -2.498   2.741  1.00  0.00    +0.000 OA
ATOM     19  HXT TRP A   1      -0.130  -1.905   2.192  1.00  0.00    +0.000 HD
ENDBRANCH  16  18
ENDBRANCH  12  16
ENDBRANCH  11  12
ENDBRANCH   7  11
TORSDOF 5
