MODEL 1
REMARK VINA RESULT:    -8.391      0.000      0.000
REMARK INTER + INTRA:         -10.577
REMARK INTER:                 -10.353
REMARK INTRA:                  -0.224
REMARK UNBOUND:                -0.224
REMARK  Name = 
REMARK  5 active torsions:
REMARK  status: ('A' for Active; 'I' for Inactive)
REMARK    1  A    between atoms: CG_7  and  CB_10
REMARK    2  A    between atoms: CB_10  and  CA_11
REMARK    3  A    between atoms: CA_11  and  C_12
REMARK    4  A    between atoms: CA_11  and  N_15
REMARK    5  A    between atoms: C_12  and  OXT_14
REMARK                            x       y       z     vdW  Elec       q    Type
REMARK                         _______ _______ _______ _____ _____    ______ ____
ROOT
ATOM      1  CZ3 TRP A   1      -0.985  25.577  12.238  1.00  0.00    +0.000 A 
ATOM      2  CH2 TRP A   1      -2.154  26.068  12.814  1.00  0.00    +0.000 A 
ATOM      3  CZ2 TRP A   1      -3.001  25.234  13.549  1.00  0.00    +0.000 A 
ATOM      4  CE2 TRP A   1      -2.628  23.892  13.689  1.00  0.00    +0.000 A 
ATOM      5  CD2 TRP A   1      -1.460  23.371  13.134  1.00  0.00    +0.000 A 
ATOM      6  CE3 TRP A   1      -0.626  24.233  12.390  1.00  0.00    +0.000 A 
ATOM      7  CG  TRP A   1      -1.389  21.989  13.501  1.00  0.00    +0.000 A 
ATOM      8  CD1 TRP A   1      -2.521  21.714  14.241  1.00  0.00    +0.000 A 
ATOM      9  NE1 TRP A   1      -3.264  22.861  14.338  1.00  0.00    +0.000 N 
ATOM     10  HE1 TRP A   1      -4.149  22.943  14.821  1.00  0.00    +0.000 HD
ENDROOT
BRANCH   7  11
ATOM     11  CB  TRP A   1      -0.287  21.025  13.171  1.00  0.00    +0.000 C 
BRANCH  11  12
ATOM     12  CA  TRP A   1      -0.021  20.011  14.295  1.00  0.00    +0.000 C 
BRANCH  12  13
ATOM     13  N   TRP A   1       1.444  19.894  14.534  1.00  0.00    +0.000 NA
ATOM     14  H1  TRP A   1       1.918  20.129  13.654  1.00  0.00    +0.000 HD
ATOM     15  H2  TRP A   1       1.664  18.902  14.658  1.00  0.00    +0.000 HD
ENDBRANCH  12  13
BRANCH  12  16
ATOM     16  C   TRP A   1      -0.589  18.628  13.931  1.00  0.00    +0.000 C 
ATOM     17  O   TRP A   1      -1.587  18.462  13.239  1.00  0.00    +0.000 OA
BRANCH  16  18
ATOM     18  OXT TRP A   1       0.130  17.587  14.410  1.00  0.00    +0.000 OA
ATOM     19  HXT TRP A   1      -0.339  16.728  14.366  1.00  0.00    +0.000 HD
ENDBRANCH  16  18
ENDBRANCH  12  16
ENDBRANCH  11  12
ENDBRANCH   7  11
TORSDOF 5
ENDMDL
MODEL 2
REMARK VINA RESULT:    -7.977      1.091      1.137
REMARK INTER + INTRA:         -10.066
REMARK INTER:                  -9.843
REMARK INTRA:                  -0.223
REMARK UNBOUND:                -0.224
REMARK  Name = 
REMARK  5 active torsions:
REMARK  status: ('A' for Active; 'I' for Inactive)
REMARK    1  A    between atoms: CG_7  and  CB_10
REMARK    2  A    between atoms: CB_10  and  CA_11
REMARK    3  A    between atoms: CA_11  and  C_12
REMARK    4  A    between atoms: CA_11  and  N_15
REMARK    5  A    between atoms: C_12  and  OXT_14
REMARK                            x       y       z     vdW  Elec       q    Type
REMARK                         _______ _______ _______ _____ _____    ______ ____
ROOT
ATOM      1  CZ3 TRP A   1      -0.537  24.891  12.387  1.00  0.00    +0.000 A 
ATOM      2  CH2 TRP A   1      -1.801  25.473  12.447  1.00  0.00    +0.000 A 
ATOM      3  CZ2 TRP A   1      -2.870  24.815  13.060  1.00  0.00    +0.000 A 
ATOM      4  CE2 TRP A   1      -2.623  23.554  13.616  1.00  0.00    +0.000 A 
ATOM      5  CD2 TRP A   1      -1.368  22.947  13.582  1.00  0.00    +0.000 A 
ATOM      6  CE3 TRP A   1      -0.307  23.630  12.950  1.00  0.00    +0.000 A 
ATOM      7  CG  TRP A   1      -1.479  21.694  14.264  1.00  0.00    +0.000 A 
ATOM      8  CD1 TRP A   1      -2.795  21.573  14.665  1.00  0.00    +0.000 A 
ATOM      9  NE1 TRP A   1      -3.475  22.690  14.261  1.00  0.00    +0.000 N 
ATOM     10  HE1 TRP A   1      -4.460  22.862  14.416  1.00  0.00    +0.000 HD
ENDROOT
BRANCH   7  11
ATOM     11  CB  TRP A   1      -0.377  20.707  14.521  1.00  0.00    +0.000 C 
BRANCH  11  12
ATOM     12  CA  TRP A   1      -0.743  19.665  15.589  1.00  0.00    +0.000 C 
BRANCH  12  13
ATOM     13  N   TRP A   1       0.249  19.706  16.698  1.00  0.00    +0.000 NA
ATOM     14  H1  TRP A   1       0.955  18.986  16.506  1.00  0.00    +0.000 HD
ATOM     15  H2  TRP A   1      -0.210  19.361  17.544  1.00  0.00    +0.000 HD
ENDBRANCH  12  13
BRANCH  12  16
ATOM     16  C   TRP A   1      -0.771  18.249  14.985  1.00  0.00    +0.000 C 
ATOM     17  O   TRP A   1      -1.790  17.578  14.870  1.00  0.00    +0.000 OA
BRANCH  16  18
ATOM     18  OXT TRP A   1       0.430  17.805  14.550  1.00  0.00    +0.000 OA
ATOM     19  HXT TRP A   1       0.514  16.829  14.544  1.00  0.00    +0.000 HD
ENDBRANCH  16  18
ENDBRANCH  12  16
ENDBRANCH  11  12
ENDBRANCH   7  11
TORSDOF 5
ENDMDL
MODEL 3
REMARK VINA RESULT:    -7.926      4.795      6.836
REMARK INTER + INTRA:         -10.003
REMARK INTER:                  -9.730
REMARK INTRA:                  -0.273
REMARK UNBOUND:                -0.224
REMARK  Name = 
REMARK  5 active torsions:
REMARK  status: ('A' for Active; 'I' for Inactive)
REMARK    1  A    between atoms: CG_7  and  CB_10
REMARK    2  A    between atoms: CB_10  and  CA_11
REMARK    3  A    between atoms: CA_11  and  C_12
REMARK    4  A    between atoms: CA_11  and  N_15
REMARK    5  A    between atoms: C_12  and  OXT_14
REMARK                            x       y       z     vdW  Elec       q    Type
REMARK                         _______ _______ _______ _____ _____    ______ ____
ROOT
ATOM      1  CZ3 TRP A   1      -2.099  22.115  14.281  1.00  0.00    +0.000 A 
ATOM      2  CH2 TRP A   1      -0.707  22.084  14.265  1.00  0.00    +0.000 A 
ATOM      3  CZ2 TRP A   1       0.029  23.075  13.609  1.00  0.00    +0.000 A 
ATOM      4  CE2 TRP A   1      -0.684  24.101  12.978  1.00  0.00    +0.000 A 
ATOM      5  CD2 TRP A   1      -2.077  24.166  12.984  1.00  0.00    +0.000 A 
ATOM      6  CE3 TRP A   1      -2.796  23.149  13.646  1.00  0.00    +0.000 A 
ATOM      7  CG  TRP A   1      -2.454  25.352  12.274  1.00  0.00    +0.000 A 
ATOM      8  CD1 TRP A   1      -1.285  25.947  11.843  1.00  0.00    +0.000 A 
ATOM      9  NE1 TRP A   1      -0.230  25.182  12.261  1.00  0.00    +0.000 N 
ATOM     10  HE1 TRP A   1       0.745  25.382  12.077  1.00  0.00    +0.000 HD
ENDROOT
BRANCH   7  11
ATOM     11  CB  TRP A   1      -3.846  25.868  12.058  1.00  0.00    +0.000 C 
BRANCH  11  12
ATOM     12  CA  TRP A   1      -4.308  26.831  13.162  1.00  0.00    +0.000 C 
BRANCH  12  13
ATOM     13  N   TRP A   1      -5.467  26.247  13.890  1.00  0.00    +0.000 NA
ATOM     14  H1  TRP A   1      -5.755  26.926  14.604  1.00  0.00    +0.000 HD
ATOM     15  H2  TRP A   1      -5.125  25.458  14.446  1.00  0.00    +0.000 HD
ENDBRANCH  12  13
BRANCH  12  16
ATOM     16  C   TRP A   1      -4.714  28.192  12.568  1.00  0.00    +0.000 C 
ATOM     17  O   TRP A   1      -3.991  28.859  11.838  1.00  0.00    +0.000 OA
BRANCH  16  18
ATOM     18  OXT TRP A   1      -5.968  28.587  12.887  1.00  0.00    +0.000 OA
ATOM     19  HXT TRP A   1      -6.249  28.322  13.788  1.00  0.00    +0.000 HD
ENDBRANCH  16  18
ENDBRANCH  12  16
ENDBRANCH  11  12
ENDBRANCH   7  11
TORSDOF 5
ENDMDL
MODEL 4
REMARK VINA RESULT:    -7.598      2.142      2.974
REMARK INTER + INTRA:          -9.598
REMARK INTER:                  -9.348
REMARK INTRA:                  -0.249
REMARK UNBOUND:                -0.224
REMARK  Name = 
REMARK  5 active torsions:
REMARK  status: ('A' for Active; 'I' for Inactive)
REMARK    1  A    between atoms: CG_7  and  CB_10
REMARK    2  A    between atoms: CB_10  and  CA_11
REMARK    3  A    between atoms: CA_11  and  C_12
REMARK    4  A    between atoms: CA_11  and  N_15
REMARK    5  A    between atoms: C_12  and  OXT_14
REMARK                            x       y       z     vdW  Elec       q    Type
REMARK                         _______ _______ _______ _____ _____    ______ ____
ROOT
ATOM      1  CZ3 TRP A   1      -3.912  26.727  12.405  1.00  0.00    +0.000 A 
ATOM      2  CH2 TRP A   1      -2.849  27.406  11.815  1.00  0.00    +0.000 A 
ATOM      3  CZ2 TRP A   1      -1.566  26.853  11.791  1.00  0.00    +0.000 A 
ATOM      4  CE2 TRP A   1      -1.392  25.592  12.375  1.00  0.00    +0.000 A 
ATOM      5  CD2 TRP A   1      -2.437  24.883  12.965  1.00  0.00    +0.000 A 
ATOM      6  CE3 TRP A   1      -3.721  25.468  12.983  1.00  0.00    +0.000 A 
ATOM      7  CG  TRP A   1      -1.904  23.637  13.426  1.00  0.00    +0.000 A 
ATOM      8  CD1 TRP A   1      -0.557  23.643  13.124  1.00  0.00    +0.000 A 
ATOM      9  NE1 TRP A   1      -0.258  24.826  12.504  1.00  0.00    +0.000 N 
ATOM     10  HE1 TRP A   1       0.661  25.100  12.180  1.00  0.00    +0.000 HD
ENDROOT
BRANCH   7  11
ATOM     11  CB  TRP A   1      -2.661  22.522  14.088  1.00  0.00    +0.000 C 
BRANCH  11  12
ATOM     12  CA  TRP A   1      -2.043  21.140  13.827  1.00  0.00    +0.000 C 
BRANCH  12  13
ATOM     13  N   TRP A   1      -3.090  20.203  13.337  1.00  0.00    +0.000 NA
ATOM     14  H1  TRP A   1      -3.181  20.345  12.325  1.00  0.00    +0.000 HD
ATOM     15  H2  TRP A   1      -3.993  20.522  13.699  1.00  0.00    +0.000 HD
ENDBRANCH  12  13
BRANCH  12  16
ATOM     16  C   TRP A   1      -1.412  20.571  15.111  1.00  0.00    +0.000 C 
ATOM     17  O   TRP A   1      -2.052  20.011  15.994  1.00  0.00    +0.000 OA
BRANCH  16  18
ATOM     18  OXT TRP A   1      -0.068  20.704  15.178  1.00  0.00    +0.000 OA
ATOM     19  HXT TRP A   1       0.412  19.852  15.242  1.00  0.00    +0.000 HD
ENDBRANCH  16  18
ENDBRANCH  12  16
ENDBRANCH  11  12
ENDBRANCH   7  11
TORSDOF 5
ENDMDL
MODEL 5
REMARK VINA RESULT:    -7.184      3.986      6.044
REMARK INTER + INTRA:          -9.087
REMARK INTER:                  -8.936
REMARK INTRA:                  -0.151
REMARK UNBOUND:                -0.224
REMARK  Name = 
REMARK  5 active torsions:
REMARK  status: ('A' for Active; 'I' for Inactive)
REMARK    1  A    between atoms: CG_7  and  CB_10
REMARK    2  A    between atoms: CB_10  and  CA_11
REMARK    3  A    between atoms: CA_11  and  C_12
REMARK    4  A    between atoms: CA_11  and  N_15
REMARK    5  A    between atoms: C_12  and  OXT_14
REMARK                            x       y       z     vdW  Elec       q    Type
REMARK                         _______ _______ _______ _____ _____    ______ ____
ROOT
ATOM      1  CZ3 TRP A   1       0.303  21.510  13.092  1.00  0.00    +0.000 A 
ATOM      2  CH2 TRP A   1      -0.507  20.528  13.658  1.00  0.00    +0.000 A 
ATOM      3  CZ2 TRP A   1      -1.784  20.833  14.135  1.00  0.00    +0.000 A 
ATOM      4  CE2 TRP A   1      -2.222  22.158  14.016  1.00  0.00    +0.000 A 
ATOM      5  CD2 TRP A   1      -1.440  23.163  13.447  1.00  0.00    +0.000 A 
ATOM      6  CE3 TRP A   1      -0.150  22.829  12.981  1.00  0.00    +0.000 A 
ATOM      7  CG  TRP A   1      -2.210  24.369  13.466  1.00  0.00    +0.000 A 
ATOM      8  CD1 TRP A   1      -3.416  24.063  14.066  1.00  0.00    +0.000 A 
ATOM      9  NE1 TRP A   1      -3.407  22.736  14.403  1.00  0.00    +0.000 N 
ATOM     10  HE1 TRP A   1      -4.163  22.245  14.863  1.00  0.00    +0.000 HD
ENDROOT
BRANCH   7  11
ATOM     11  CB  TRP A   1      -1.804  25.707  12.920  1.00  0.00    +0.000 C 
BRANCH  11  12
ATOM     12  CA  TRP A   1      -2.662  26.153  11.726  1.00  0.00    +0.000 C 
BRANCH  12  13
ATOM     13  N   TRP A   1      -1.793  26.737  10.669  1.00  0.00    +0.000 NA
ATOM     14  H1  TRP A   1      -1.720  27.744  10.853  1.00  0.00    +0.000 HD
ATOM     15  H2  TRP A   1      -2.307  26.700   9.784  1.00  0.00    +0.000 HD
ENDBRANCH  12  13
BRANCH  12  16
ATOM     16  C   TRP A   1      -3.705  27.199  12.162  1.00  0.00    +0.000 C 
ATOM     17  O   TRP A   1      -4.483  27.037  13.096  1.00  0.00    +0.000 OA
BRANCH  16  18
ATOM     18  OXT TRP A   1      -3.675  28.346  11.447  1.00  0.00    +0.000 OA
ATOM     19  HXT TRP A   1      -2.819  28.820  11.494  1.00  0.00    +0.000 HD
ENDBRANCH  16  18
ENDBRANCH  12  16
ENDBRANCH  11  12
ENDBRANCH   7  11
TORSDOF 5
ENDMDL
MODEL 6
REMARK VINA RESULT:    -7.104      2.993      5.808
REMARK INTER + INTRA:          -8.989
REMARK INTER:                  -8.793
REMARK INTRA:                  -0.196
REMARK UNBOUND:                -0.224
REMARK  Name = 
REMARK  5 active torsions:
REMARK  status: ('A' for Active; 'I' for Inactive)
REMARK    1  A    between atoms: CG_7  and  CB_10
REMARK    2  A    between atoms: CB_10  and  CA_11
REMARK    3  A    between atoms: CA_11  and  C_12
REMARK    4  A    between atoms: CA_11  and  N_15
REMARK    5  A    between atoms: C_12  and  OXT_14
REMARK                            x       y       z     vdW  Elec       q    Type
REMARK                         _______ _______ _______ _____ _____    ______ ____
ROOT
ATOM      1  CZ3 TRP A   1      -2.663  18.237  13.014  1.00  0.00    +0.000 A 
ATOM      2  CH2 TRP A   1      -1.779  17.444  13.741  1.00  0.00    +0.000 A 
ATOM      3  CZ2 TRP A   1      -0.608  17.980  14.282  1.00  0.00    +0.000 A 
ATOM      4  CE2 TRP A   1      -0.360  19.342  14.071  1.00  0.00    +0.000 A 
ATOM      5  CD2 TRP A   1      -1.229  20.165  13.355  1.00  0.00    +0.000 A 
ATOM      6  CE3 TRP A   1      -2.400  19.597  12.813  1.00  0.00    +0.000 A 
ATOM      7  CG  TRP A   1      -0.675  21.486  13.367  1.00  0.00    +0.000 A 
ATOM      8  CD1 TRP A   1       0.515  21.414  14.063  1.00  0.00    +0.000 A 
ATOM      9  NE1 TRP A   1       0.700  20.120  14.471  1.00  0.00    +0.000 N 
ATOM     10  HE1 TRP A   1       1.496  19.782  14.996  1.00  0.00    +0.000 HD
ENDROOT
BRANCH   7  11
ATOM     11  CB  TRP A   1      -1.278  22.721  12.763  1.00  0.00    +0.000 C 
BRANCH  11  12
ATOM     12  CA  TRP A   1      -2.117  23.530  13.764  1.00  0.00    +0.000 C 
BRANCH  12  13
ATOM     13  N   TRP A   1      -3.384  22.810  14.061  1.00  0.00    +0.000 NA
ATOM     14  H1  TRP A   1      -3.196  22.162  14.835  1.00  0.00    +0.000 HD
ATOM     15  H2  TRP A   1      -3.581  22.182  13.276  1.00  0.00    +0.000 HD
ENDBRANCH  12  13
BRANCH  12  16
ATOM     16  C   TRP A   1      -2.445  24.925  13.201  1.00  0.00    +0.000 C 
ATOM     17  O   TRP A   1      -2.767  25.131  12.037  1.00  0.00    +0.000 OA
BRANCH  16  18
ATOM     18  OXT TRP A   1      -2.385  25.922  14.114  1.00  0.00    +0.000 OA
ATOM     19  HXT TRP A   1      -2.020  26.760  13.761  1.00  0.00    +0.000 HD
ENDBRANCH  16  18
ENDBRANCH  12  16
ENDBRANCH  11  12
ENDBRANCH   7  11
TORSDOF 5
ENDMDL
MODEL 7
REMARK VINA RESULT:    -6.777      2.552      3.536
REMARK INTER + INTRA:          -8.586
REMARK INTER:                  -8.371
REMARK INTRA:                  -0.214
REMARK UNBOUND:                -0.224
REMARK  Name = 
REMARK  5 active torsions:
REMARK  status: ('A' for Active; 'I' for Inactive)
REMARK    1  A    between atoms: CG_7  and  CB_10
REMARK    2  A    between atoms: CB_10  and  CA_11
REMARK    3  A    between atoms: CA_11  and  C_12
REMARK    4  A    between atoms: CA_11  and  N_15
REMARK    5  A    between atoms: C_12  and  OXT_14
REMARK                            x       y       z     vdW  Elec       q    Type
REMARK                         _______ _______ _______ _____ _____    ______ ____
ROOT
ATOM      1  CZ3 TRP A   1      -2.763  23.613  13.737  1.00  0.00    +0.000 A 
ATOM      2  CH2 TRP A   1      -1.692  24.048  12.961  1.00  0.00    +0.000 A 
ATOM      3  CZ2 TRP A   1      -0.514  23.301  12.873  1.00  0.00    +0.000 A 
ATOM      4  CE2 TRP A   1      -0.454  22.098  13.588  1.00  0.00    +0.000 A 
ATOM      5  CD2 TRP A   1      -1.512  21.630  14.367  1.00  0.00    +0.000 A 
ATOM      6  CE3 TRP A   1      -2.686  22.408  14.445  1.00  0.00    +0.000 A 
ATOM      7  CG  TRP A   1      -1.112  20.372  14.921  1.00  0.00    +0.000 A 
ATOM      8  CD1 TRP A   1       0.175  20.134  14.483  1.00  0.00    +0.000 A 
ATOM      9  NE1 TRP A   1       0.564  21.182  13.692  1.00  0.00    +0.000 N 
ATOM     10  HE1 TRP A   1       1.467  21.271  13.244  1.00  0.00    +0.000 HD
ENDROOT
BRANCH   7  11
ATOM     11  CB  TRP A   1      -1.936  19.468  15.791  1.00  0.00    +0.000 C 
BRANCH  11  12
ATOM     12  CA  TRP A   1      -1.105  18.370  16.472  1.00  0.00    +0.000 C 
BRANCH  12  13
ATOM     13  N   TRP A   1      -1.933  17.147  16.651  1.00  0.00    +0.000 NA
ATOM     14  H1  TRP A   1      -1.498  16.588  17.395  1.00  0.00    +0.000 HD
ATOM     15  H2  TRP A   1      -1.812  16.561  15.821  1.00  0.00    +0.000 HD
ENDBRANCH  12  13
BRANCH  12  16
ATOM     16  C   TRP A   1      -0.592  18.843  17.845  1.00  0.00    +0.000 C 
ATOM     17  O   TRP A   1      -1.199  18.667  18.895  1.00  0.00    +0.000 OA
BRANCH  16  18
ATOM     18  OXT TRP A   1       0.618  19.445  17.811  1.00  0.00    +0.000 OA
ATOM     19  HXT TRP A   1       0.860  19.896  18.646  1.00  0.00    +0.000 HD
ENDBRANCH  16  18
ENDBRANCH  12  16
ENDBRANCH  11  12
ENDBRANCH   7  11
TORSDOF 5
ENDMDL
MODEL 8
REMARK VINA RESULT:    -6.640      3.697      5.734
REMARK INTER + INTRA:          -8.416
REMARK INTER:                  -8.686
REMARK INTRA:                   0.270
REMARK UNBOUND:                -0.224
REMARK  Name = 
REMARK  5 active torsions:
REMARK  status: ('A' for Active; 'I' for Inactive)
REMARK    1  A    between atoms: CG_7  and  CB_10
REMARK    2  A    between atoms: CB_10  and  CA_11
REMARK    3  A    between atoms: CA_11  and  C_12
REMARK    4  A    between atoms: CA_11  and  N_15
REMARK    5  A    between atoms: C_12  and  OXT_14
REMARK                            x       y       z     vdW  Elec       q    Type
REMARK                         _______ _______ _______ _____ _____    ______ ____
ROOT
ATOM      1  CZ3 TRP A   1       0.994  20.545  13.569  1.00  0.00    +0.000 A 
ATOM      2  CH2 TRP A   1       0.575  19.651  14.551  1.00  0.00    +0.000 A 
ATOM      3  CZ2 TRP A   1      -0.668  19.794  15.172  1.00  0.00    +0.000 A 
ATOM      4  CE2 TRP A   1      -1.477  20.862  14.767  1.00  0.00    +0.000 A 
ATOM      5  CD2 TRP A   1      -1.090  21.769  13.781  1.00  0.00    +0.000 A 
ATOM      6  CE3 TRP A   1       0.173  21.607  13.175  1.00  0.00    +0.000 A 
ATOM      7  CG  TRP A   1      -2.166  22.699  13.609  1.00  0.00    +0.000 A 
ATOM      8  CD1 TRP A   1      -3.150  22.342  14.508  1.00  0.00    +0.000 A 
ATOM      9  NE1 TRP A   1      -2.722  21.245  15.206  1.00  0.00    +0.000 N 
ATOM     10  HE1 TRP A   1      -3.244  20.777  15.936  1.00  0.00    +0.000 HD
ENDROOT
BRANCH   7  11
ATOM     11  CB  TRP A   1      -2.229  23.831  12.625  1.00  0.00    +0.000 C 
BRANCH  11  12
ATOM     12  CA  TRP A   1      -2.534  25.184  13.287  1.00  0.00    +0.000 C 
BRANCH  12  13
ATOM     13  N   TRP A   1      -3.900  25.161  13.878  1.00  0.00    +0.000 NA
ATOM     14  H1  TRP A   1      -4.045  24.227  14.279  1.00  0.00    +0.000 HD
ATOM     15  H2  TRP A   1      -4.576  25.191  13.110  1.00  0.00    +0.000 HD
ENDBRANCH  12  13
BRANCH  12  16
ATOM     16  C   TRP A   1      -2.445  26.328  12.261  1.00  0.00    +0.000 C 
ATOM     17  O   TRP A   1      -1.447  27.022  12.100  1.00  0.00    +0.000 OA
BRANCH  16  18
ATOM     18  OXT TRP A   1      -3.557  26.492  11.510  1.00  0.00    +0.000 OA
ATOM     19  HXT TRP A   1      -4.392  26.359  12.005  1.00  0.00    +0.000 HD
ENDBRANCH  16  18
ENDBRANCH  12  16
ENDBRANCH  11  12
ENDBRANCH   7  11
TORSDOF 5
ENDMDL
MODEL 9
REMARK VINA RESULT:    -6.395      2.497      3.306
REMARK INTER + INTRA:          -8.114
REMARK INTER:                  -8.000
REMARK INTRA:                  -0.113
REMARK UNBOUND:                -0.224
REMARK  Name = 
REMARK  5 active torsions:
REMARK  status: ('A' for Active; 'I' for Inactive)
REMARK    1  A    between atoms: CG_7  and  CB_10
REMARK    2  A    between atoms: CB_10  and  CA_11
REMARK    3  A    between atoms: CA_11  and  C_12
REMARK    4  A    between atoms: CA_11  and  N_15
REMARK    5  A    between atoms: C_12  and  OXT_14
REMARK                            x       y       z     vdW  Elec       q    Type
REMARK                         _______ _______ _______ _____ _____    ______ ____
ROOT
ATOM      1  CZ3 TRP A   1       0.338  22.645  13.835  1.00  0.00    +0.000 A 
ATOM      2  CH2 TRP A   1      -0.775  23.309  13.326  1.00  0.00    +0.000 A 
ATOM      3  CZ2 TRP A   1      -1.963  22.623  13.058  1.00  0.00    +0.000 A 
ATOM      4  CE2 TRP A   1      -1.994  21.249  13.326  1.00  0.00    +0.000 A 
ATOM      5  CD2 TRP A   1      -0.899  20.557  13.844  1.00  0.00    +0.000 A 
ATOM      6  CE3 TRP A   1       0.290  21.271  14.098  1.00  0.00    +0.000 A 
ATOM      7  CG  TRP A   1      -1.297  19.192  14.015  1.00  0.00    +0.000 A 
ATOM      8  CD1 TRP A   1      -2.602  19.099  13.574  1.00  0.00    +0.000 A 
ATOM      9  NE1 TRP A   1      -3.007  20.337  13.152  1.00  0.00    +0.000 N 
ATOM     10  HE1 TRP A   1      -3.919  20.555  12.772  1.00  0.00    +0.000 HD
ENDROOT
BRANCH   7  11
ATOM     11  CB  TRP A   1      -0.470  18.077  14.586  1.00  0.00    +0.000 C 
BRANCH  11  12
ATOM     12  CA  TRP A   1      -0.811  17.767  16.052  1.00  0.00    +0.000 C 
BRANCH  12  13
ATOM     13  N   TRP A   1      -2.134  17.090  16.132  1.00  0.00    +0.000 NA
ATOM     14  H1  TRP A   1      -2.468  17.183  17.097  1.00  0.00    +0.000 HD
ATOM     15  H2  TRP A   1      -1.978  16.083  16.036  1.00  0.00    +0.000 HD
ENDBRANCH  12  13
BRANCH  12  16
ATOM     16  C   TRP A   1      -0.849  19.058  16.890  1.00  0.00    +0.000 C 
ATOM     17  O   TRP A   1      -1.883  19.575  17.297  1.00  0.00    +0.000 OA
BRANCH  16  18
ATOM     18  OXT TRP A   1       0.368  19.570  17.180  1.00  0.00    +0.000 OA
ATOM     19  HXT TRP A   1       1.045  19.396  16.493  1.00  0.00    +0.000 HD
ENDBRANCH  16  18
ENDBRANCH  12  16
ENDBRANCH  11  12
ENDBRANCH   7  11
TORSDOF 5
ENDMDL
