MODEL 1
REMARK VINA RESULT:    -8.906      0.000      0.000
REMARK INTER + INTRA:         -11.216
REMARK INTER:                 -10.989
REMARK INTRA:                  -0.227
REMARK UNBOUND:                -0.227
REMARK  Name = 
REMARK  5 active torsions:
REMARK  status: ('A' for Active; 'I' for Inactive)
REMARK    1  A    between atoms: CG_7  and  CB_10
REMARK    2  A    between atoms: CB_10  and  CA_11
REMARK    3  A    between atoms: CA_11  and  C_12
REMARK    4  A    between atoms: CA_11  and  N_15
REMARK    5  A    between atoms: C_12  and  OXT_14
REMARK                            x       y       z     vdW  Elec       q    Type
REMARK                         _______ _______ _______ _____ _____    ______ ____
ROOT
ATOM      1  CZ3 TRP A   1      10.331   8.618  14.728  1.00  0.00    +0.000 A 
ATOM      2  CH2 TRP A   1       9.713   9.863  14.650  1.00  0.00    +0.000 A 
ATOM      3  CZ2 TRP A   1       9.375  10.425  13.415  1.00  0.00    +0.000 A 
ATOM      4  CE2 TRP A   1       9.675   9.687  12.264  1.00  0.00    +0.000 A 
ATOM      5  CD2 TRP A   1      10.285   8.434  12.308  1.00  0.00    +0.000 A 
ATOM      6  CE3 TRP A   1      10.623   7.894  13.567  1.00  0.00    +0.000 A 
ATOM      7  CG  TRP A   1      10.409   7.969  10.959  1.00  0.00    +0.000 A 
ATOM      8  CD1 TRP A   1       9.897   8.961  10.147  1.00  0.00    +0.000 A 
ATOM      9  NE1 TRP A   1       9.469   9.992  10.940  1.00  0.00    +0.000 N 
ATOM     10  HE1 TRP A   1       9.056  10.853  10.605  1.00  0.00    +0.000 HD
ENDROOT
BRANCH   7  11
ATOM     11  CB  TRP A   1      10.965   6.650  10.508  1.00  0.00    +0.000 C 
BRANCH  11  12
ATOM     12  CA  TRP A   1      10.859   6.442   8.989  1.00  0.00    +0.000 C 
BRANCH  12  13
ATOM     13  N   TRP A   1       9.946   5.304   8.697  1.00  0.00    +0.000 NA
ATOM     14  H1  TRP A   1      10.488   4.440   8.807  1.00  0.00    +0.000 HD
ATOM     15  H2  TRP A   1       9.735   5.319   7.695  1.00  0.00    +0.000 HD
ENDBRANCH  12  13
BRANCH  12  16
ATOM     16  C   TRP A   1      12.242   6.154   8.378  1.00  0.00    +0.000 C 
ATOM     17  O   TRP A   1      13.035   7.028   8.046  1.00  0.00    +0.000 OA
BRANCH  16  18
ATOM     18  OXT TRP A   1      12.539   4.839   8.266  1.00  0.00    +0.000 OA
ATOM     19  HXT TRP A   1      13.219   4.643   7.589  1.00  0.00    +0.000 HD
ENDBRANCH  16  18
ENDBRANCH  12  16
ENDBRANCH  11  12
ENDBRANCH   7  11
TORSDOF 5
ENDMDL
MODEL 2
REMARK VINA RESULT:    -8.239      4.764      7.152
REMARK INTER + INTRA:         -10.393
REMARK INTER:                 -10.182
REMARK INTRA:                  -0.211
REMARK UNBOUND:                -0.227
REMARK  Name = 
REMARK  5 active torsions:
REMARK  status: ('A' for Active; 'I' for Inactive)
REMARK    1  A    between atoms: CG_7  and  CB_10
REMARK    2  A    between atoms: CB_10  and  CA_11
REMARK    3  A    between atoms: CA_11  and  C_12
REMARK    4  A    between atoms: CA_11  and  N_15
REMARK    5  A    between atoms: C_12  and  OXT_14
REMARK                            x       y       z     vdW  Elec       q    Type
REMARK                         _______ _______ _______ _____ _____    ______ ____
ROOT
ATOM      1  CZ3 TRP A   1      10.054   9.133  11.275  1.00  0.00    +0.000 A 
ATOM      2  CH2 TRP A   1      10.747   8.028  11.760  1.00  0.00    +0.000 A 
ATOM      3  CZ2 TRP A   1      10.922   7.833  13.133  1.00  0.00    +0.000 A 
ATOM      4  CE2 TRP A   1      10.369   8.784  13.999  1.00  0.00    +0.000 A 
ATOM      5  CD2 TRP A   1       9.661   9.896  13.545  1.00  0.00    +0.000 A 
ATOM      6  CE3 TRP A   1       9.507  10.074  12.155  1.00  0.00    +0.000 A 
ATOM      7  CG  TRP A   1       9.223  10.625  14.697  1.00  0.00    +0.000 A 
ATOM      8  CD1 TRP A   1       9.699   9.948  15.803  1.00  0.00    +0.000 A 
ATOM      9  NE1 TRP A   1      10.395   8.850  15.372  1.00  0.00    +0.000 N 
ATOM     10  HE1 TRP A   1      10.858   8.180  15.972  1.00  0.00    +0.000 HD
ENDROOT
BRANCH   7  11
ATOM     11  CB  TRP A   1       8.387  11.871  14.711  1.00  0.00    +0.000 C 
BRANCH  11  12
ATOM     12  CA  TRP A   1       9.199  13.134  15.037  1.00  0.00    +0.000 C 
BRANCH  12  13
ATOM     13  N   TRP A   1       9.139  13.411  16.498  1.00  0.00    +0.000 NA
ATOM     14  H1  TRP A   1       9.353  12.535  16.986  1.00  0.00    +0.000 HD
ATOM     15  H2  TRP A   1       8.161  13.582  16.746  1.00  0.00    +0.000 HD
ENDBRANCH  12  13
BRANCH  12  16
ATOM     16  C   TRP A   1       8.653  14.350  14.267  1.00  0.00    +0.000 C 
ATOM     17  O   TRP A   1       8.694  15.499  14.691  1.00  0.00    +0.000 OA
BRANCH  16  18
ATOM     18  OXT TRP A   1       8.148  14.056  13.047  1.00  0.00    +0.000 OA
ATOM     19  HXT TRP A   1       8.766  13.559  12.472  1.00  0.00    +0.000 HD
ENDBRANCH  16  18
ENDBRANCH  12  16
ENDBRANCH  11  12
ENDBRANCH   7  11
TORSDOF 5
ENDMDL
MODEL 3
REMARK VINA RESULT:    -8.167      4.615      6.719
REMARK INTER + INTRA:         -10.304
REMARK INTER:                 -10.094
REMARK INTRA:                  -0.210
REMARK UNBOUND:                -0.227
REMARK  Name = 
REMARK  5 active torsions:
REMARK  status: ('A' for Active; 'I' for Inactive)
REMARK    1  A    between atoms: CG_7  and  CB_10
REMARK    2  A    between atoms: CB_10  and  CA_11
REMARK    3  A    between atoms: CA_11  and  C_12
REMARK    4  A    between atoms: CA_11  and  N_15
REMARK    5  A    between atoms: C_12  and  OXT_14
REMARK                            x       y       z     vdW  Elec       q    Type
REMARK                         _______ _______ _______ _____ _____    ______ ____
ROOT
ATOM      1  CZ3 TRP A   1      11.459   7.118  12.142  1.00  0.00    +0.000 A 
ATOM      2  CH2 TRP A   1      11.209   7.520  10.832  1.00  0.00    +0.000 A 
ATOM      3  CZ2 TRP A   1      10.441   8.657  10.561  1.00  0.00    +0.000 A 
ATOM      4  CE2 TRP A   1       9.940   9.376  11.653  1.00  0.00    +0.000 A 
ATOM      5  CD2 TRP A   1      10.180   9.005  12.976  1.00  0.00    +0.000 A 
ATOM      6  CE3 TRP A   1      10.951   7.850  13.221  1.00  0.00    +0.000 A 
ATOM      7  CG  TRP A   1       9.546   9.976  13.815  1.00  0.00    +0.000 A 
ATOM      8  CD1 TRP A   1       8.926  10.883  12.979  1.00  0.00    +0.000 A 
ATOM      9  NE1 TRP A   1       9.160  10.507  11.683  1.00  0.00    +0.000 N 
ATOM     10  HE1 TRP A   1       8.815  10.990  10.864  1.00  0.00    +0.000 HD
ENDROOT
BRANCH   7  11
ATOM     11  CB  TRP A   1       9.567  10.022  15.315  1.00  0.00    +0.000 C 
BRANCH  11  12
ATOM     12  CA  TRP A   1       9.995  11.390  15.868  1.00  0.00    +0.000 C 
BRANCH  12  13
ATOM     13  N   TRP A   1      11.022  11.208  16.929  1.00  0.00    +0.000 NA
ATOM     14  H1  TRP A   1      11.877  10.869  16.475  1.00  0.00    +0.000 HD
ATOM     15  H2  TRP A   1      10.738  10.414  17.510  1.00  0.00    +0.000 HD
ENDBRANCH  12  13
BRANCH  12  16
ATOM     16  C   TRP A   1       8.789  12.146  16.453  1.00  0.00    +0.000 C 
ATOM     17  O   TRP A   1       7.781  12.421  15.811  1.00  0.00    +0.000 OA
BRANCH  16  18
ATOM     18  OXT TRP A   1       8.909  12.459  17.763  1.00  0.00    +0.000 OA
ATOM     19  HXT TRP A   1       8.105  12.274  18.291  1.00  0.00    +0.000 HD
ENDBRANCH  16  18
ENDBRANCH  12  16
ENDBRANCH  11  12
ENDBRANCH   7  11
TORSDOF 5
ENDMDL
MODEL 4
REMARK VINA RESULT:    -8.033      6.068      8.441
REMARK INTER + INTRA:         -10.139
REMARK INTER:                  -9.888
REMARK INTRA:                  -0.251
REMARK UNBOUND:                -0.227
REMARK  Name = 
REMARK  5 active torsions:
REMARK  status: ('A' for Active; 'I' for Inactive)
REMARK    1  A    between atoms: CG_7  and  CB_10
REMARK    2  A    between atoms: CB_10  and  CA_11
REMARK    3  A    between atoms: CA_11  and  C_12
REMARK    4  A    between atoms: CA_11  and  N_15
REMARK    5  A    between atoms: C_12  and  OXT_14
REMARK                            x       y       z     vdW  Elec       q    Type
REMARK                         _______ _______ _______ _____ _____    ______ ____
ROOT
ATOM      1  CZ3 TRP A   1      10.384   8.628  14.544  1.00  0.00    +0.000 A 
ATOM      2  CH2 TRP A   1      10.227   8.726  13.164  1.00  0.00    +0.000 A 
ATOM      3  CZ2 TRP A   1       9.589   9.827  12.586  1.00  0.00    +0.000 A 
ATOM      4  CE2 TRP A   1       9.119  10.828  13.445  1.00  0.00    +0.000 A 
ATOM      5  CD2 TRP A   1       9.268  10.765  14.830  1.00  0.00    +0.000 A 
ATOM      6  CE3 TRP A   1       9.909   9.639  15.388  1.00  0.00    +0.000 A 
ATOM      7  CG  TRP A   1       8.702  11.961  15.377  1.00  0.00    +0.000 A 
ATOM      8  CD1 TRP A   1       8.210  12.692  14.314  1.00  0.00    +0.000 A 
ATOM      9  NE1 TRP A   1       8.455  11.997  13.160  1.00  0.00    +0.000 N 
ATOM     10  HE1 TRP A   1       8.194  12.299  12.230  1.00  0.00    +0.000 HD
ENDROOT
BRANCH   7  11
ATOM     11  CB  TRP A   1       8.668  12.363  16.823  1.00  0.00    +0.000 C 
BRANCH  11  12
ATOM     12  CA  TRP A   1       8.360  13.855  17.024  1.00  0.00    +0.000 C 
BRANCH  12  13
ATOM     13  N   TRP A   1       9.501  14.518  17.711  1.00  0.00    +0.000 NA
ATOM     14  H1  TRP A   1       9.125  15.325  18.221  1.00  0.00    +0.000 HD
ATOM     15  H2  TRP A   1      10.091  14.951  16.995  1.00  0.00    +0.000 HD
ENDBRANCH  12  13
BRANCH  12  16
ATOM     16  C   TRP A   1       7.083  14.042  17.864  1.00  0.00    +0.000 C 
ATOM     17  O   TRP A   1       6.887  15.004  18.598  1.00  0.00    +0.000 OA
BRANCH  16  18
ATOM     18  OXT TRP A   1       6.161  13.066  17.700  1.00  0.00    +0.000 OA
ATOM     19  HXT TRP A   1       5.241  13.397  17.643  1.00  0.00    +0.000 HD
ENDBRANCH  16  18
ENDBRANCH  12  16
ENDBRANCH  11  12
ENDBRANCH   7  11
TORSDOF 5
ENDMDL
MODEL 5
REMARK VINA RESULT:    -7.599      4.768      6.865
REMARK INTER + INTRA:          -9.603
REMARK INTER:                  -9.309
REMARK INTRA:                  -0.294
REMARK UNBOUND:                -0.227
REMARK  Name = 
REMARK  5 active torsions:
REMARK  status: ('A' for Active; 'I' for Inactive)
REMARK    1  A    between atoms: CG_7  and  CB_10
REMARK    2  A    between atoms: CB_10  and  CA_11
REMARK    3  A    between atoms: CA_11  and  C_12
REMARK    4  A    between atoms: CA_11  and  N_15
REMARK    5  A    between atoms: C_12  and  OXT_14
REMARK                            x       y       z     vdW  Elec       q    Type
REMARK                         _______ _______ _______ _____ _____    ______ ____
ROOT
ATOM      1  CZ3 TRP A   1       8.352  15.298  14.738  1.00  0.00    +0.000 A 
ATOM      2  CH2 TRP A   1       7.676  15.748  15.869  1.00  0.00    +0.000 A 
ATOM      3  CZ2 TRP A   1       7.593  14.960  17.021  1.00  0.00    +0.000 A 
ATOM      4  CE2 TRP A   1       8.219  13.708  16.996  1.00  0.00    +0.000 A 
ATOM      5  CD2 TRP A   1       8.911  13.232  15.883  1.00  0.00    +0.000 A 
ATOM      6  CE3 TRP A   1       8.973  14.044  14.731  1.00  0.00    +0.000 A 
ATOM      7  CG  TRP A   1       9.439  11.946  16.224  1.00  0.00    +0.000 A 
ATOM      8  CD1 TRP A   1       9.031  11.676  17.515  1.00  0.00    +0.000 A 
ATOM      9  NE1 TRP A   1       8.289  12.735  17.965  1.00  0.00    +0.000 N 
ATOM     10  HE1 TRP A   1       7.858  12.801  18.878  1.00  0.00    +0.000 HD
ENDROOT
BRANCH   7  11
ATOM     11  CB  TRP A   1      10.294  11.065  15.361  1.00  0.00    +0.000 C 
BRANCH  11  12
ATOM     12  CA  TRP A   1       9.500   9.939  14.680  1.00  0.00    +0.000 C 
BRANCH  12  13
ATOM     13  N   TRP A   1      10.132   8.625  14.975  1.00  0.00    +0.000 NA
ATOM     14  H1  TRP A   1      10.631   8.717  15.866  1.00  0.00    +0.000 HD
ATOM     15  H2  TRP A   1      10.887   8.480  14.299  1.00  0.00    +0.000 HD
ENDBRANCH  12  13
BRANCH  12  16
ATOM     16  C   TRP A   1       9.449  10.149  13.156  1.00  0.00    +0.000 C 
ATOM     17  O   TRP A   1       9.973   9.391  12.347  1.00  0.00    +0.000 OA
BRANCH  16  18
ATOM     18  OXT TRP A   1       8.739  11.231  12.765  1.00  0.00    +0.000 OA
ATOM     19  HXT TRP A   1       9.240  12.072  12.812  1.00  0.00    +0.000 HD
ENDBRANCH  16  18
ENDBRANCH  12  16
ENDBRANCH  11  12
ENDBRANCH   7  11
TORSDOF 5
ENDMDL
MODEL 6
REMARK VINA RESULT:    -7.512      1.515      1.715
REMARK INTER + INTRA:          -9.495
REMARK INTER:                  -9.275
REMARK INTRA:                  -0.220
REMARK UNBOUND:                -0.227
REMARK  Name = 
REMARK  5 active torsions:
REMARK  status: ('A' for Active; 'I' for Inactive)
REMARK    1  A    between atoms: CG_7  and  CB_10
REMARK    2  A    between atoms: CB_10  and  CA_11
REMARK    3  A    between atoms: CA_11  and  C_12
REMARK    4  A    between atoms: CA_11  and  N_15
REMARK    5  A    between atoms: C_12  and  OXT_14
REMARK                            x       y       z     vdW  Elec       q    Type
REMARK                         _______ _______ _______ _____ _____    ______ ____
ROOT
ATOM      1  CZ3 TRP A   1      10.634   7.660  13.515  1.00  0.00    +0.000 A 
ATOM      2  CH2 TRP A   1      10.248   8.994  13.613  1.00  0.00    +0.000 A 
ATOM      3  CZ2 TRP A   1       9.936   9.740  12.473  1.00  0.00    +0.000 A 
ATOM      4  CE2 TRP A   1      10.019   9.095  11.233  1.00  0.00    +0.000 A 
ATOM      5  CD2 TRP A   1      10.394   7.758  11.101  1.00  0.00    +0.000 A 
ATOM      6  CE3 TRP A   1      10.712   7.031  12.267  1.00  0.00    +0.000 A 
ATOM      7  CG  TRP A   1      10.341   7.434   9.708  1.00  0.00    +0.000 A 
ATOM      8  CD1 TRP A   1       9.964   8.584   9.044  1.00  0.00    +0.000 A 
ATOM      9  NE1 TRP A   1       9.784   9.578   9.968  1.00  0.00    +0.000 N 
ATOM     10  HE1 TRP A   1       9.512  10.529   9.757  1.00  0.00    +0.000 HD
ENDROOT
BRANCH   7  11
ATOM     11  CB  TRP A   1      10.618   6.098   9.083  1.00  0.00    +0.000 C 
BRANCH  11  12
ATOM     12  CA  TRP A   1       9.804   5.854   7.802  1.00  0.00    +0.000 C 
BRANCH  12  13
ATOM     13  N   TRP A   1       8.963   4.637   7.961  1.00  0.00    +0.000 NA
ATOM     14  H1  TRP A   1       9.438   3.870   7.470  1.00  0.00    +0.000 HD
ATOM     15  H2  TRP A   1       8.110   4.770   7.411  1.00  0.00    +0.000 HD
ENDBRANCH  12  13
BRANCH  12  16
ATOM     16  C   TRP A   1      10.734   5.675   6.589  1.00  0.00    +0.000 C 
ATOM     17  O   TRP A   1      10.884   6.522   5.715  1.00  0.00    +0.000 OA
BRANCH  16  18
ATOM     18  OXT TRP A   1      11.414   4.506   6.575  1.00  0.00    +0.000 OA
ATOM     19  HXT TRP A   1      11.297   3.971   7.388  1.00  0.00    +0.000 HD
ENDBRANCH  16  18
ENDBRANCH  12  16
ENDBRANCH  11  12
ENDBRANCH   7  11
TORSDOF 5
ENDMDL
MODEL 7
REMARK VINA RESULT:    -7.393      2.613      3.592
REMARK INTER + INTRA:          -9.348
REMARK INTER:                  -9.112
REMARK INTRA:                  -0.236
REMARK UNBOUND:                -0.227
REMARK  Name = 
REMARK  5 active torsions:
REMARK  status: ('A' for Active; 'I' for Inactive)
REMARK    1  A    between atoms: CG_7  and  CB_10
REMARK    2  A    between atoms: CB_10  and  CA_11
REMARK    3  A    between atoms: CA_11  and  C_12
REMARK    4  A    between atoms: CA_11  and  N_15
REMARK    5  A    between atoms: C_12  and  OXT_14
REMARK                            x       y       z     vdW  Elec       q    Type
REMARK                         _______ _______ _______ _____ _____    ______ ____
ROOT
ATOM      1  CZ3 TRP A   1       9.943   9.625  12.340  1.00  0.00    +0.000 A 
ATOM      2  CH2 TRP A   1      10.353   8.613  13.204  1.00  0.00    +0.000 A 
ATOM      3  CZ2 TRP A   1      10.698   7.348  12.722  1.00  0.00    +0.000 A 
ATOM      4  CE2 TRP A   1      10.623   7.139  11.339  1.00  0.00    +0.000 A 
ATOM      5  CD2 TRP A   1      10.225   8.133  10.446  1.00  0.00    +0.000 A 
ATOM      6  CE3 TRP A   1       9.874   9.399  10.960  1.00  0.00    +0.000 A 
ATOM      7  CG  TRP A   1      10.294   7.578   9.128  1.00  0.00    +0.000 A 
ATOM      8  CD1 TRP A   1      10.704   6.267   9.268  1.00  0.00    +0.000 A 
ATOM      9  NE1 TRP A   1      10.887   6.010  10.600  1.00  0.00    +0.000 N 
ATOM     10  HE1 TRP A   1      11.180   5.124  10.989  1.00  0.00    +0.000 HD
ENDROOT
BRANCH   7  11
ATOM     11  CB  TRP A   1      10.003   8.285   7.836  1.00  0.00    +0.000 C 
BRANCH  11  12
ATOM     12  CA  TRP A   1      11.245   8.444   6.946  1.00  0.00    +0.000 C 
BRANCH  12  13
ATOM     13  N   TRP A   1      12.182   9.426   7.557  1.00  0.00    +0.000 NA
ATOM     14  H1  TRP A   1      12.025  10.329   7.094  1.00  0.00    +0.000 HD
ATOM     15  H2  TRP A   1      13.131   9.178   7.266  1.00  0.00    +0.000 HD
ENDBRANCH  12  13
BRANCH  12  16
ATOM     16  C   TRP A   1      10.852   8.926   5.538  1.00  0.00    +0.000 C 
ATOM     17  O   TRP A   1      10.019   8.365   4.835  1.00  0.00    +0.000 OA
BRANCH  16  18
ATOM     18  OXT TRP A   1      11.478  10.056   5.140  1.00  0.00    +0.000 OA
ATOM     19  HXT TRP A   1      11.235  10.347   4.237  1.00  0.00    +0.000 HD
ENDBRANCH  16  18
ENDBRANCH  12  16
ENDBRANCH  11  12
ENDBRANCH   7  11
TORSDOF 5
ENDMDL
MODEL 8
REMARK VINA RESULT:    -7.340      2.995      5.971
REMARK INTER + INTRA:          -9.283
REMARK INTER:                  -9.078
REMARK INTRA:                  -0.205
REMARK UNBOUND:                -0.227
REMARK  Name = 
REMARK  5 active torsions:
REMARK  status: ('A' for Active; 'I' for Inactive)
REMARK    1  A    between atoms: CG_7  and  CB_10
REMARK    2  A    between atoms: CB_10  and  CA_11
REMARK    3  A    between atoms: CA_11  and  C_12
REMARK    4  A    between atoms: CA_11  and  N_15
REMARK    5  A    between atoms: C_12  and  OXT_14
REMARK                            x       y       z     vdW  Elec       q    Type
REMARK                         _______ _______ _______ _____ _____    ______ ____
ROOT
ATOM      1  CZ3 TRP A   1      13.847   8.262   7.379  1.00  0.00    +0.000 A 
ATOM      2  CH2 TRP A   1      13.652   7.041   6.740  1.00  0.00    +0.000 A 
ATOM      3  CZ2 TRP A   1      12.824   6.061   7.294  1.00  0.00    +0.000 A 
ATOM      4  CE2 TRP A   1      12.196   6.355   8.510  1.00  0.00    +0.000 A 
ATOM      5  CD2 TRP A   1      12.363   7.572   9.171  1.00  0.00    +0.000 A 
ATOM      6  CE3 TRP A   1      13.210   8.540   8.594  1.00  0.00    +0.000 A 
ATOM      7  CG  TRP A   1      11.556   7.532  10.353  1.00  0.00    +0.000 A 
ATOM      8  CD1 TRP A   1      10.951   6.291  10.382  1.00  0.00    +0.000 A 
ATOM      9  NE1 TRP A   1      11.351   5.589   9.277  1.00  0.00    +0.000 N 
ATOM     10  HE1 TRP A   1      11.065   4.645   9.050  1.00  0.00    +0.000 HD
ENDROOT
BRANCH   7  11
ATOM     11  CB  TRP A   1      11.378   8.631  11.360  1.00  0.00    +0.000 C 
BRANCH  11  12
ATOM     12  CA  TRP A   1       9.908   8.860  11.743  1.00  0.00    +0.000 C 
BRANCH  12  13
ATOM     13  N   TRP A   1       9.380  10.057  11.034  1.00  0.00    +0.000 NA
ATOM     14  H1  TRP A   1      10.161  10.477  10.518  1.00  0.00    +0.000 HD
ATOM     15  H2  TRP A   1       9.158  10.767  11.737  1.00  0.00    +0.000 HD
ENDBRANCH  12  13
BRANCH  12  16
ATOM     16  C   TRP A   1       9.764   9.065  13.262  1.00  0.00    +0.000 C 
ATOM     17  O   TRP A   1      10.529   8.584  14.090  1.00  0.00    +0.000 OA
BRANCH  16  18
ATOM     18  OXT TRP A   1       8.731   9.861  13.622  1.00  0.00    +0.000 OA
ATOM     19  HXT TRP A   1       8.686  10.042  14.584  1.00  0.00    +0.000 HD
ENDBRANCH  16  18
ENDBRANCH  12  16
ENDBRANCH  11  12
ENDBRANCH   7  11
TORSDOF 5
ENDMDL
MODEL 9
REMARK VINA RESULT:    -7.339      6.173      8.402
REMARK INTER + INTRA:          -9.282
REMARK INTER:                  -9.057
REMARK INTRA:                  -0.225
REMARK UNBOUND:                -0.227
REMARK  Name = 
REMARK  5 active torsions:
REMARK  status: ('A' for Active; 'I' for Inactive)
REMARK    1  A    between atoms: CG_7  and  CB_10
REMARK    2  A    between atoms: CB_10  and  CA_11
REMARK    3  A    between atoms: CA_11  and  C_12
REMARK    4  A    between atoms: CA_11  and  N_15
REMARK    5  A    between atoms: C_12  and  OXT_14
REMARK                            x       y       z     vdW  Elec       q    Type
REMARK                         _______ _______ _______ _____ _____    ______ ____
ROOT
ATOM      1  CZ3 TRP A   1       8.062  17.398  15.798  1.00  0.00    +0.000 A 
ATOM      2  CH2 TRP A   1       7.727  17.673  17.122  1.00  0.00    +0.000 A 
ATOM      3  CZ2 TRP A   1       7.377  16.648  18.005  1.00  0.00    +0.000 A 
ATOM      4  CE2 TRP A   1       7.381  15.338  17.512  1.00  0.00    +0.000 A 
ATOM      5  CD2 TRP A   1       7.720  15.028  16.196  1.00  0.00    +0.000 A 
ATOM      6  CE3 TRP A   1       8.062  16.082  15.323  1.00  0.00    +0.000 A 
ATOM      7  CG  TRP A   1       7.644  13.605  16.057  1.00  0.00    +0.000 A 
ATOM      8  CD1 TRP A   1       7.240  13.106  17.279  1.00  0.00    +0.000 A 
ATOM      9  NE1 TRP A   1       7.074  14.156  18.142  1.00  0.00    +0.000 N 
ATOM     10  HE1 TRP A   1       6.775  14.078  19.106  1.00  0.00    +0.000 HD
ENDROOT
BRANCH   7  11
ATOM     11  CB  TRP A   1       7.964  12.800  14.831  1.00  0.00    +0.000 C 
BRANCH  11  12
ATOM     12  CA  TRP A   1       8.979  11.678  15.098  1.00  0.00    +0.000 C 
BRANCH  12  13
ATOM     13  N   TRP A   1      10.314  12.264  15.398  1.00  0.00    +0.000 NA
ATOM     14  H1  TRP A   1      10.588  12.834  14.590  1.00  0.00    +0.000 HD
ATOM     15  H2  TRP A   1      11.000  11.504  15.390  1.00  0.00    +0.000 HD
ENDBRANCH  12  13
BRANCH  12  16
ATOM     16  C   TRP A   1       9.097  10.745  13.879  1.00  0.00    +0.000 C 
ATOM     17  O   TRP A   1       9.466   9.578  13.948  1.00  0.00    +0.000 OA
BRANCH  16  18
ATOM     18  OXT TRP A   1       8.720  11.308  12.708  1.00  0.00    +0.000 OA
ATOM     19  HXT TRP A   1       8.811  10.712  11.935  1.00  0.00    +0.000 HD
ENDBRANCH  16  18
ENDBRANCH  12  16
ENDBRANCH  11  12
ENDBRANCH   7  11
TORSDOF 5
ENDMDL
