MODEL 1
REMARK VINA RESULT:    -8.373      0.000      0.000
REMARK INTER + INTRA:         -10.552
REMARK INTER:                 -10.330
REMARK INTRA:                  -0.221
REMARK UNBOUND:                -0.221
REMARK  Name = 
REMARK  5 active torsions:
REMARK  status: ('A' for Active; 'I' for Inactive)
REMARK    1  A    between atoms: CG_7  and  CB_10
REMARK    2  A    between atoms: CB_10  and  CA_11
REMARK    3  A    between atoms: CA_11  and  C_12
REMARK    4  A    between atoms: CA_11  and  N_15
REMARK    5  A    between atoms: C_12  and  OXT_14
REMARK                            x       y       z     vdW  Elec       q    Type
REMARK                         _______ _______ _______ _____ _____    ______ ____
ROOT
ATOM      1  CZ3 TRP A   1      -0.957  25.588  12.224  1.00  0.00    +0.000 A 
ATOM      2  CH2 TRP A   1      -2.127  26.085  12.792  1.00  0.00    +0.000 A 
ATOM      3  CZ2 TRP A   1      -2.980  25.257  13.527  1.00  0.00    +0.000 A 
ATOM      4  CE2 TRP A   1      -2.612  23.914  13.675  1.00  0.00    +0.000 A 
ATOM      5  CD2 TRP A   1      -1.442  23.387  13.126  1.00  0.00    +0.000 A 
ATOM      6  CE3 TRP A   1      -0.603  24.243  12.383  1.00  0.00    +0.000 A 
ATOM      7  CG  TRP A   1      -1.378  22.007  13.500  1.00  0.00    +0.000 A 
ATOM      8  CD1 TRP A   1      -2.515  21.739  14.236  1.00  0.00    +0.000 A 
ATOM      9  NE1 TRP A   1      -3.254  22.887  14.325  1.00  0.00    +0.000 N 
ATOM     10  HE1 TRP A   1      -4.141  22.975  14.803  1.00  0.00    +0.000 HD
ENDROOT
BRANCH   7  11
ATOM     11  CB  TRP A   1      -0.278  21.037  13.179  1.00  0.00    +0.000 C 
BRANCH  11  12
ATOM     12  CA  TRP A   1      -0.018  20.029  14.309  1.00  0.00    +0.000 C 
BRANCH  12  13
ATOM     13  N   TRP A   1       1.445  19.909  14.554  1.00  0.00    +0.000 NA
ATOM     14  H1  TRP A   1       1.870  19.540  13.696  1.00  0.00    +0.000 HD
ATOM     15  H2  TRP A   1       1.590  19.153  15.228  1.00  0.00    +0.000 HD
ENDBRANCH  12  13
BRANCH  12  16
ATOM     16  C   TRP A   1      -0.588  18.645  13.950  1.00  0.00    +0.000 C 
ATOM     17  O   TRP A   1      -1.602  18.479  13.281  1.00  0.00    +0.000 OA
BRANCH  16  18
ATOM     18  OXT TRP A   1       0.146  17.604  14.406  1.00  0.00    +0.000 OA
ATOM     19  HXT TRP A   1       0.552  17.065  13.695  1.00  0.00    +0.000 HD
ENDBRANCH  16  18
ENDBRANCH  12  16
ENDBRANCH  11  12
ENDBRANCH   7  11
TORSDOF 5
ENDMDL
MODEL 2
REMARK VINA RESULT:    -7.893      4.723      6.780
REMARK INTER + INTRA:          -9.961
REMARK INTER:                  -9.692
REMARK INTRA:                  -0.268
REMARK UNBOUND:                -0.221
REMARK  Name = 
REMARK  5 active torsions:
REMARK  status: ('A' for Active; 'I' for Inactive)
REMARK    1  A    between atoms: CG_7  and  CB_10
REMARK    2  A    between atoms: CB_10  and  CA_11
REMARK    3  A    between atoms: CA_11  and  C_12
REMARK    4  A    between atoms: CA_11  and  N_15
REMARK    5  A    between atoms: C_12  and  OXT_14
REMARK                            x       y       z     vdW  Elec       q    Type
REMARK                         _______ _______ _______ _____ _____    ______ ____
ROOT
ATOM      1  CZ3 TRP A   1      -2.050  21.969  14.305  1.00  0.00    +0.000 A 
ATOM      2  CH2 TRP A   1      -0.657  21.965  14.296  1.00  0.00    +0.000 A 
ATOM      3  CZ2 TRP A   1       0.063  22.985  13.669  1.00  0.00    +0.000 A 
ATOM      4  CE2 TRP A   1      -0.666  24.012  13.058  1.00  0.00    +0.000 A 
ATOM      5  CD2 TRP A   1      -2.060  24.050  13.057  1.00  0.00    +0.000 A 
ATOM      6  CE3 TRP A   1      -2.763  23.004  13.690  1.00  0.00    +0.000 A 
ATOM      7  CG  TRP A   1      -2.456  25.245  12.373  1.00  0.00    +0.000 A 
ATOM      8  CD1 TRP A   1      -1.297  25.873  11.964  1.00  0.00    +0.000 A 
ATOM      9  NE1 TRP A   1      -0.229  25.118  12.370  1.00  0.00    +0.000 N 
ATOM     10  HE1 TRP A   1       0.743  25.341  12.197  1.00  0.00    +0.000 HD
ENDROOT
BRANCH   7  11
ATOM     11  CB  TRP A   1      -3.857  25.739  12.160  1.00  0.00    +0.000 C 
BRANCH  11  12
ATOM     12  CA  TRP A   1      -4.304  26.754  13.223  1.00  0.00    +0.000 C 
BRANCH  12  13
ATOM     13  N   TRP A   1      -5.455  26.208  13.992  1.00  0.00    +0.000 NA
ATOM     14  H1  TRP A   1      -5.074  25.610  14.733  1.00  0.00    +0.000 HD
ATOM     15  H2  TRP A   1      -5.949  25.545  13.389  1.00  0.00    +0.000 HD
ENDBRANCH  12  13
BRANCH  12  16
ATOM     16  C   TRP A   1      -4.714  28.086  12.570  1.00  0.00    +0.000 C 
ATOM     17  O   TRP A   1      -4.004  28.709  11.790  1.00  0.00    +0.000 OA
BRANCH  16  18
ATOM     18  OXT TRP A   1      -5.956  28.509  12.899  1.00  0.00    +0.000 OA
ATOM     19  HXT TRP A   1      -6.647  27.820  12.804  1.00  0.00    +0.000 HD
ENDBRANCH  16  18
ENDBRANCH  12  16
ENDBRANCH  11  12
ENDBRANCH   7  11
TORSDOF 5
ENDMDL
MODEL 3
REMARK VINA RESULT:    -7.588      2.146      2.966
REMARK INTER + INTRA:          -9.584
REMARK INTER:                  -9.335
REMARK INTRA:                  -0.249
REMARK UNBOUND:                -0.221
REMARK  Name = 
REMARK  5 active torsions:
REMARK  status: ('A' for Active; 'I' for Inactive)
REMARK    1  A    between atoms: CG_7  and  CB_10
REMARK    2  A    between atoms: CB_10  and  CA_11
REMARK    3  A    between atoms: CA_11  and  C_12
REMARK    4  A    between atoms: CA_11  and  N_15
REMARK    5  A    between atoms: C_12  and  OXT_14
REMARK                            x       y       z     vdW  Elec       q    Type
REMARK                         _______ _______ _______ _____ _____    ______ ____
ROOT
ATOM      1  CZ3 TRP A   1      -3.913  26.725  12.387  1.00  0.00    +0.000 A 
ATOM      2  CH2 TRP A   1      -2.843  27.403  11.809  1.00  0.00    +0.000 A 
ATOM      3  CZ2 TRP A   1      -1.559  26.851  11.801  1.00  0.00    +0.000 A 
ATOM      4  CE2 TRP A   1      -1.391  25.592  12.389  1.00  0.00    +0.000 A 
ATOM      5  CD2 TRP A   1      -2.443  24.883  12.968  1.00  0.00    +0.000 A 
ATOM      6  CE3 TRP A   1      -3.728  25.466  12.970  1.00  0.00    +0.000 A 
ATOM      7  CG  TRP A   1      -1.914  23.637  13.436  1.00  0.00    +0.000 A 
ATOM      8  CD1 TRP A   1      -0.564  23.644  13.150  1.00  0.00    +0.000 A 
ATOM      9  NE1 TRP A   1      -0.258  24.827  12.532  1.00  0.00    +0.000 N 
ATOM     10  HE1 TRP A   1       0.664  25.101  12.219  1.00  0.00    +0.000 HD
ENDROOT
BRANCH   7  11
ATOM     11  CB  TRP A   1      -2.678  22.523  14.091  1.00  0.00    +0.000 C 
BRANCH  11  12
ATOM     12  CA  TRP A   1      -2.055  21.141  13.840  1.00  0.00    +0.000 C 
BRANCH  12  13
ATOM     13  N   TRP A   1      -3.097  20.198  13.349  1.00  0.00    +0.000 NA
ATOM     14  H1  TRP A   1      -4.007  20.556  13.662  1.00  0.00    +0.000 HD
ATOM     15  H2  TRP A   1      -3.000  19.323  13.871  1.00  0.00    +0.000 HD
ENDBRANCH  12  13
BRANCH  12  16
ATOM     16  C   TRP A   1      -1.430  20.580  15.131  1.00  0.00    +0.000 C 
ATOM     17  O   TRP A   1      -2.076  20.032  16.017  1.00  0.00    +0.000 OA
BRANCH  16  18
ATOM     18  OXT TRP A   1      -0.085  20.706  15.199  1.00  0.00    +0.000 OA
ATOM     19  HXT TRP A   1       0.320  20.223  15.948  1.00  0.00    +0.000 HD
ENDBRANCH  16  18
ENDBRANCH  12  16
ENDBRANCH  11  12
ENDBRANCH   7  11
TORSDOF 5
ENDMDL
MODEL 4
REMARK VINA RESULT:    -7.254      3.043      5.821
REMARK INTER + INTRA:          -9.172
REMARK INTER:                  -9.006
REMARK INTRA:                  -0.166
REMARK UNBOUND:                -0.221
REMARK  Name = 
REMARK  5 active torsions:
REMARK  status: ('A' for Active; 'I' for Inactive)
REMARK    1  A    between atoms: CG_7  and  CB_10
REMARK    2  A    between atoms: CB_10  and  CA_11
REMARK    3  A    between atoms: CA_11  and  C_12
REMARK    4  A    between atoms: CA_11  and  N_15
REMARK    5  A    between atoms: C_12  and  OXT_14
REMARK                            x       y       z     vdW  Elec       q    Type
REMARK                         _______ _______ _______ _____ _____    ______ ____
ROOT
ATOM      1  CZ3 TRP A   1      -2.571  18.206  12.958  1.00  0.00    +0.000 A 
ATOM      2  CH2 TRP A   1      -1.657  17.453  13.689  1.00  0.00    +0.000 A 
ATOM      3  CZ2 TRP A   1      -0.533  18.047  14.269  1.00  0.00    +0.000 A 
ATOM      4  CE2 TRP A   1      -0.364  19.426  14.092  1.00  0.00    +0.000 A 
ATOM      5  CD2 TRP A   1      -1.266  20.210  13.373  1.00  0.00    +0.000 A 
ATOM      6  CE3 TRP A   1      -2.388  19.584  12.791  1.00  0.00    +0.000 A 
ATOM      7  CG  TRP A   1      -0.795  21.561  13.425  1.00  0.00    +0.000 A 
ATOM      8  CD1 TRP A   1       0.382  21.546  14.147  1.00  0.00    +0.000 A 
ATOM      9  NE1 TRP A   1       0.637  20.258  14.533  1.00  0.00    +0.000 N 
ATOM     10  HE1 TRP A   1       1.440  19.957  15.069  1.00  0.00    +0.000 HD
ENDROOT
BRANCH   7  11
ATOM     11  CB  TRP A   1      -1.459  22.770  12.833  1.00  0.00    +0.000 C 
BRANCH  11  12
ATOM     12  CA  TRP A   1      -2.356  23.513  13.834  1.00  0.00    +0.000 C 
BRANCH  12  13
ATOM     13  N   TRP A   1      -3.511  22.654  14.213  1.00  0.00    +0.000 NA
ATOM     14  H1  TRP A   1      -3.255  22.157  15.074  1.00  0.00    +0.000 HD
ATOM     15  H2  TRP A   1      -3.582  21.901  13.523  1.00  0.00    +0.000 HD
ENDBRANCH  12  13
BRANCH  12  16
ATOM     16  C   TRP A   1      -2.879  24.829  13.230  1.00  0.00    +0.000 C 
ATOM     17  O   TRP A   1      -2.364  25.389  12.269  1.00  0.00    +0.000 OA
BRANCH  16  18
ATOM     18  OXT TRP A   1      -3.992  25.313  13.827  1.00  0.00    +0.000 OA
ATOM     19  HXT TRP A   1      -3.866  25.545  14.771  1.00  0.00    +0.000 HD
ENDBRANCH  16  18
ENDBRANCH  12  16
ENDBRANCH  11  12
ENDBRANCH   7  11
TORSDOF 5
ENDMDL
MODEL 5
REMARK VINA RESULT:    -7.057      3.874      6.226
REMARK INTER + INTRA:          -8.929
REMARK INTER:                  -8.781
REMARK INTRA:                  -0.148
REMARK UNBOUND:                -0.221
REMARK  Name = 
REMARK  5 active torsions:
REMARK  status: ('A' for Active; 'I' for Inactive)
REMARK    1  A    between atoms: CG_7  and  CB_10
REMARK    2  A    between atoms: CB_10  and  CA_11
REMARK    3  A    between atoms: CA_11  and  C_12
REMARK    4  A    between atoms: CA_11  and  N_15
REMARK    5  A    between atoms: C_12  and  OXT_14
REMARK                            x       y       z     vdW  Elec       q    Type
REMARK                         _______ _______ _______ _____ _____    ______ ____
ROOT
ATOM      1  CZ3 TRP A   1      -2.597  20.922  14.554  1.00  0.00    +0.000 A 
ATOM      2  CH2 TRP A   1      -1.474  20.288  14.030  1.00  0.00    +0.000 A 
ATOM      3  CZ2 TRP A   1      -0.524  20.998  13.290  1.00  0.00    +0.000 A 
ATOM      4  CE2 TRP A   1      -0.741  22.368  13.102  1.00  0.00    +0.000 A 
ATOM      5  CD2 TRP A   1      -1.850  23.035  13.621  1.00  0.00    +0.000 A 
ATOM      6  CE3 TRP A   1      -2.798  22.293  14.357  1.00  0.00    +0.000 A 
ATOM      7  CG  TRP A   1      -1.729  24.415  13.260  1.00  0.00    +0.000 A 
ATOM      8  CD1 TRP A   1      -0.570  24.533  12.518  1.00  0.00    +0.000 A 
ATOM      9  NE1 TRP A   1       0.009  23.296  12.420  1.00  0.00    +0.000 N 
ATOM     10  HE1 TRP A   1       0.866  23.091  11.923  1.00  0.00    +0.000 HD
ENDROOT
BRANCH   7  11
ATOM     11  CB  TRP A   1      -2.662  25.530  13.633  1.00  0.00    +0.000 C 
BRANCH  11  12
ATOM     12  CA  TRP A   1      -3.793  25.732  12.613  1.00  0.00    +0.000 C 
BRANCH  12  13
ATOM     13  N   TRP A   1      -3.246  26.324  11.362  1.00  0.00    +0.000 NA
ATOM     14  H1  TRP A   1      -3.133  25.561  10.685  1.00  0.00    +0.000 HD
ATOM     15  H2  TRP A   1      -2.282  26.615  11.547  1.00  0.00    +0.000 HD
ENDBRANCH  12  13
BRANCH  12  16
ATOM     16  C   TRP A   1      -4.883  26.660  13.180  1.00  0.00    +0.000 C 
ATOM     17  O   TRP A   1      -5.045  27.820  12.818  1.00  0.00    +0.000 OA
BRANCH  16  18
ATOM     18  OXT TRP A   1      -5.687  26.079  14.099  1.00  0.00    +0.000 OA
ATOM     19  HXT TRP A   1      -5.257  25.936  14.968  1.00  0.00    +0.000 HD
ENDBRANCH  16  18
ENDBRANCH  12  16
ENDBRANCH  11  12
ENDBRANCH   7  11
TORSDOF 5
ENDMDL
MODEL 6
REMARK VINA RESULT:    -6.679      2.231      2.846
REMARK INTER + INTRA:          -8.462
REMARK INTER:                  -8.236
REMARK INTRA:                  -0.226
REMARK UNBOUND:                -0.221
REMARK  Name = 
REMARK  5 active torsions:
REMARK  status: ('A' for Active; 'I' for Inactive)
REMARK    1  A    between atoms: CG_7  and  CB_10
REMARK    2  A    between atoms: CB_10  and  CA_11
REMARK    3  A    between atoms: CA_11  and  C_12
REMARK    4  A    between atoms: CA_11  and  N_15
REMARK    5  A    between atoms: C_12  and  OXT_14
REMARK                            x       y       z     vdW  Elec       q    Type
REMARK                         _______ _______ _______ _____ _____    ______ ____
ROOT
ATOM      1  CZ3 TRP A   1      -2.710  24.984  13.473  1.00  0.00    +0.000 A 
ATOM      2  CH2 TRP A   1      -1.579  25.383  12.765  1.00  0.00    +0.000 A 
ATOM      3  CZ2 TRP A   1      -0.493  24.520  12.597  1.00  0.00    +0.000 A 
ATOM      4  CE2 TRP A   1      -0.587  23.241  13.159  1.00  0.00    +0.000 A 
ATOM      5  CD2 TRP A   1      -1.709  22.808  13.866  1.00  0.00    +0.000 A 
ATOM      6  CE3 TRP A   1      -2.788  23.702  14.028  1.00  0.00    +0.000 A 
ATOM      7  CG  TRP A   1      -1.468  21.455  14.265  1.00  0.00    +0.000 A 
ATOM      8  CD1 TRP A   1      -0.207  21.123  13.812  1.00  0.00    +0.000 A 
ATOM      9  NE1 TRP A   1       0.318  22.207  13.160  1.00  0.00    +0.000 N 
ATOM     10  HE1 TRP A   1       1.235  22.244  12.734  1.00  0.00    +0.000 HD
ENDROOT
BRANCH   7  11
ATOM     11  CB  TRP A   1      -2.409  20.554  15.010  1.00  0.00    +0.000 C 
BRANCH  11  12
ATOM     12  CA  TRP A   1      -1.791  19.190  15.351  1.00  0.00    +0.000 C 
BRANCH  12  13
ATOM     13  N   TRP A   1      -2.832  18.129  15.279  1.00  0.00    +0.000 NA
ATOM     14  H1  TRP A   1      -2.751  17.682  14.359  1.00  0.00    +0.000 HD
ATOM     15  H2  TRP A   1      -3.746  18.588  15.234  1.00  0.00    +0.000 HD
ENDBRANCH  12  13
BRANCH  12  16
ATOM     16  C   TRP A   1      -1.178  19.204  16.764  1.00  0.00    +0.000 C 
ATOM     17  O   TRP A   1      -1.824  19.015  17.788  1.00  0.00    +0.000 OA
BRANCH  16  18
ATOM     18  OXT TRP A   1       0.158  19.410  16.789  1.00  0.00    +0.000 OA
ATOM     19  HXT TRP A   1       0.586  19.128  17.625  1.00  0.00    +0.000 HD
ENDBRANCH  16  18
ENDBRANCH  12  16
ENDBRANCH  11  12
ENDBRANCH   7  11
TORSDOF 5
ENDMDL
MODEL 7
REMARK VINA RESULT:    -6.382      2.505      3.321
REMARK INTER + INTRA:          -8.096
REMARK INTER:                  -7.978
REMARK INTRA:                  -0.117
REMARK UNBOUND:                -0.221
REMARK  Name = 
REMARK  5 active torsions:
REMARK  status: ('A' for Active; 'I' for Inactive)
REMARK    1  A    between atoms: CG_7  and  CB_10
REMARK    2  A    between atoms: CB_10  and  CA_11
REMARK    3  A    between atoms: CA_11  and  C_12
REMARK    4  A    between atoms: CA_11  and  N_15
REMARK    5  A    between atoms: C_12  and  OXT_14
REMARK                            x       y       z     vdW  Elec       q    Type
REMARK                         _______ _______ _______ _____ _____    ______ ____
ROOT
ATOM      1  CZ3 TRP A   1       0.294  22.616  13.815  1.00  0.00    +0.000 A 
ATOM      2  CH2 TRP A   1      -0.812  23.281  13.295  1.00  0.00    +0.000 A 
ATOM      3  CZ2 TRP A   1      -2.000  22.598  13.018  1.00  0.00    +0.000 A 
ATOM      4  CE2 TRP A   1      -2.036  21.225  13.288  1.00  0.00    +0.000 A 
ATOM      5  CD2 TRP A   1      -0.949  20.531  13.817  1.00  0.00    +0.000 A 
ATOM      6  CE3 TRP A   1       0.240  21.243  14.080  1.00  0.00    +0.000 A 
ATOM      7  CG  TRP A   1      -1.352  19.168  13.988  1.00  0.00    +0.000 A 
ATOM      8  CD1 TRP A   1      -2.653  19.077  13.535  1.00  0.00    +0.000 A 
ATOM      9  NE1 TRP A   1      -3.050  20.315  13.107  1.00  0.00    +0.000 N 
ATOM     10  HE1 TRP A   1      -3.958  20.535  12.718  1.00  0.00    +0.000 HD
ENDROOT
BRANCH   7  11
ATOM     11  CB  TRP A   1      -0.533  18.052  14.568  1.00  0.00    +0.000 C 
BRANCH  11  12
ATOM     12  CA  TRP A   1      -0.896  17.737  16.027  1.00  0.00    +0.000 C 
BRANCH  12  13
ATOM     13  N   TRP A   1      -2.226  17.071  16.086  1.00  0.00    +0.000 NA
ATOM     14  H1  TRP A   1      -2.572  16.991  15.123  1.00  0.00    +0.000 HD
ATOM     15  H2  TRP A   1      -2.886  17.724  16.515  1.00  0.00    +0.000 HD
ENDBRANCH  12  13
BRANCH  12  16
ATOM     16  C   TRP A   1      -0.936  19.024  16.872  1.00  0.00    +0.000 C 
ATOM     17  O   TRP A   1      -1.971  19.543  17.274  1.00  0.00    +0.000 OA
BRANCH  16  18
ATOM     18  OXT TRP A   1       0.282  19.530  17.173  1.00  0.00    +0.000 OA
ATOM     19  HXT TRP A   1       0.248  20.388  17.645  1.00  0.00    +0.000 HD
ENDBRANCH  16  18
ENDBRANCH  12  16
ENDBRANCH  11  12
ENDBRANCH   7  11
TORSDOF 5
ENDMDL
MODEL 8
REMARK VINA RESULT:    -6.278      2.549      3.789
REMARK INTER + INTRA:          -7.968
REMARK INTER:                  -7.768
REMARK INTRA:                  -0.200
REMARK UNBOUND:                -0.221
REMARK  Name = 
REMARK  5 active torsions:
REMARK  status: ('A' for Active; 'I' for Inactive)
REMARK    1  A    between atoms: CG_7  and  CB_10
REMARK    2  A    between atoms: CB_10  and  CA_11
REMARK    3  A    between atoms: CA_11  and  C_12
REMARK    4  A    between atoms: CA_11  and  N_15
REMARK    5  A    between atoms: C_12  and  OXT_14
REMARK                            x       y       z     vdW  Elec       q    Type
REMARK                         _______ _______ _______ _____ _____    ______ ____
ROOT
ATOM      1  CZ3 TRP A   1      -2.589  23.008  13.845  1.00  0.00    +0.000 A 
ATOM      2  CH2 TRP A   1      -1.427  23.644  13.416  1.00  0.00    +0.000 A 
ATOM      3  CZ2 TRP A   1      -0.198  22.980  13.423  1.00  0.00    +0.000 A 
ATOM      4  CE2 TRP A   1      -0.179  21.654  13.870  1.00  0.00    +0.000 A 
ATOM      5  CD2 TRP A   1      -1.326  20.986  14.298  1.00  0.00    +0.000 A 
ATOM      6  CE3 TRP A   1      -2.553  21.681  14.289  1.00  0.00    +0.000 A 
ATOM      7  CG  TRP A   1      -0.939  19.653  14.651  1.00  0.00    +0.000 A 
ATOM      8  CD1 TRP A   1       0.424  19.567  14.451  1.00  0.00    +0.000 A 
ATOM      9  NE1 TRP A   1       0.872  20.777  13.993  1.00  0.00    +0.000 N 
ATOM     10  HE1 TRP A   1       1.834  20.997  13.770  1.00  0.00    +0.000 HD
ENDROOT
BRANCH   7  11
ATOM     11  CB  TRP A   1      -1.839  18.549  15.124  1.00  0.00    +0.000 C 
BRANCH  11  12
ATOM     12  CA  TRP A   1      -2.435  18.816  16.515  1.00  0.00    +0.000 C 
BRANCH  12  13
ATOM     13  N   TRP A   1      -1.352  19.189  17.466  1.00  0.00    +0.000 NA
ATOM     14  H1  TRP A   1      -1.425  18.563  18.276  1.00  0.00    +0.000 HD
ATOM     15  H2  TRP A   1      -1.583  20.106  17.860  1.00  0.00    +0.000 HD
ENDBRANCH  12  13
BRANCH  12  16
ATOM     16  C   TRP A   1      -3.168  17.570  17.045  1.00  0.00    +0.000 C 
ATOM     17  O   TRP A   1      -2.618  16.495  17.257  1.00  0.00    +0.000 OA
BRANCH  16  18
ATOM     18  OXT TRP A   1      -4.483  17.763  17.298  1.00  0.00    +0.000 OA
ATOM     19  HXT TRP A   1      -4.659  18.447  17.977  1.00  0.00    +0.000 HD
ENDBRANCH  16  18
ENDBRANCH  12  16
ENDBRANCH  11  12
ENDBRANCH   7  11
TORSDOF 5
ENDMDL
MODEL 9
REMARK VINA RESULT:    -6.110      2.773      3.748
REMARK INTER + INTRA:          -7.760
REMARK INTER:                  -7.546
REMARK INTRA:                  -0.214
REMARK UNBOUND:                -0.221
REMARK  Name = 
REMARK  5 active torsions:
REMARK  status: ('A' for Active; 'I' for Inactive)
REMARK    1  A    between atoms: CG_7  and  CB_10
REMARK    2  A    between atoms: CB_10  and  CA_11
REMARK    3  A    between atoms: CA_11  and  C_12
REMARK    4  A    between atoms: CA_11  and  N_15
REMARK    5  A    between atoms: C_12  and  OXT_14
REMARK                            x       y       z     vdW  Elec       q    Type
REMARK                         _______ _______ _______ _____ _____    ______ ____
ROOT
ATOM      1  CZ3 TRP A   1       0.227  21.781  12.866  1.00  0.00    +0.000 A 
ATOM      2  CH2 TRP A   1      -0.785  22.728  12.734  1.00  0.00    +0.000 A 
ATOM      3  CZ2 TRP A   1      -1.925  22.682  13.542  1.00  0.00    +0.000 A 
ATOM      4  CE2 TRP A   1      -2.007  21.655  14.490  1.00  0.00    +0.000 A 
ATOM      5  CD2 TRP A   1      -1.007  20.697  14.653  1.00  0.00    +0.000 A 
ATOM      6  CE3 TRP A   1       0.129  20.761  13.819  1.00  0.00    +0.000 A 
ATOM      7  CG  TRP A   1      -1.411  19.832  15.720  1.00  0.00    +0.000 A 
ATOM      8  CD1 TRP A   1      -2.646  20.277  16.148  1.00  0.00    +0.000 A 
ATOM      9  NE1 TRP A   1      -3.000  21.364  15.395  1.00  0.00    +0.000 N 
ATOM     10  HE1 TRP A   1      -3.861  21.885  15.490  1.00  0.00    +0.000 HD
ENDROOT
BRANCH   7  11
ATOM     11  CB  TRP A   1      -0.637  18.678  16.287  1.00  0.00    +0.000 C 
BRANCH  11  12
ATOM     12  CA  TRP A   1      -0.544  18.713  17.820  1.00  0.00    +0.000 C 
BRANCH  12  13
ATOM     13  N   TRP A   1       0.742  19.336  18.235  1.00  0.00    +0.000 NA
ATOM     14  H1  TRP A   1       1.252  19.587  17.380  1.00  0.00    +0.000 HD
ATOM     15  H2  TRP A   1       1.327  18.605  18.648  1.00  0.00    +0.000 HD
ENDBRANCH  12  13
BRANCH  12  16
ATOM     16  C   TRP A   1      -0.633  17.293  18.407  1.00  0.00    +0.000 C 
ATOM     17  O   TRP A   1       0.136  16.858  19.257  1.00  0.00    +0.000 OA
BRANCH  16  18
ATOM     18  OXT TRP A   1      -1.665  16.558  17.933  1.00  0.00    +0.000 OA
ATOM     19  HXT TRP A   1      -1.392  15.712  17.522  1.00  0.00    +0.000 HD
ENDBRANCH  16  18
ENDBRANCH  12  16
ENDBRANCH  11  12
ENDBRANCH   7  11
TORSDOF 5
ENDMDL
