MODEL 1
REMARK VINA RESULT:    -5.418      0.000      0.000
REMARK INTER + INTRA:          -6.963
REMARK INTER:                  -6.685
REMARK INTRA:                  -0.278
REMARK UNBOUND:                -0.278
REMARK  Name = 
REMARK  5 active torsions:
REMARK  status: ('A' for Active; 'I' for Inactive)
REMARK    1  A    between atoms: CG_7  and  CB_10
REMARK    2  A    between atoms: CB_10  and  CA_11
REMARK    3  A    between atoms: CA_11  and  C_12
REMARK    4  A    between atoms: CA_11  and  N_15
REMARK    5  A    between atoms: C_12  and  OXT_14
REMARK                            x       y       z     vdW  Elec       q    Type
REMARK                         _______ _______ _______ _____ _____    ______ ____
ROOT
ATOM      1  CZ3 TRP A   1      47.787  -0.780  11.154  1.00  0.00    +0.000 A 
ATOM      2  CH2 TRP A   1      47.410  -2.043  10.703  1.00  0.00    +0.000 A 
ATOM      3  CZ2 TRP A   1      47.251  -3.108  11.593  1.00  0.00    +0.000 A 
ATOM      4  CE2 TRP A   1      47.478  -2.858  12.952  1.00  0.00    +0.000 A 
ATOM      5  CD2 TRP A   1      47.848  -1.604  13.437  1.00  0.00    +0.000 A 
ATOM      6  CE3 TRP A   1      48.009  -0.548  12.516  1.00  0.00    +0.000 A 
ATOM      7  CG  TRP A   1      47.963  -1.712  14.860  1.00  0.00    +0.000 A 
ATOM      8  CD1 TRP A   1      47.686  -3.025  15.184  1.00  0.00    +0.000 A 
ATOM      9  NE1 TRP A   1      47.408  -3.707  14.031  1.00  0.00    +0.000 N 
ATOM     10  HE1 TRP A   1      47.178  -4.690  13.975  1.00  0.00    +0.000 HD
ENDROOT
BRANCH   7  11
ATOM     11  CB  TRP A   1      48.296  -0.609  15.823  1.00  0.00    +0.000 C 
BRANCH  11  12
ATOM     12  CA  TRP A   1      47.194   0.457  15.918  1.00  0.00    +0.000 C 
BRANCH  12  13
ATOM     13  N   TRP A   1      47.688   1.627  16.693  1.00  0.00    +0.000 NA
ATOM     14  H1  TRP A   1      47.064   1.749  17.498  1.00  0.00    +0.000 HD
ATOM     15  H2  TRP A   1      47.515   2.469  16.136  1.00  0.00    +0.000 HD
ENDBRANCH  12  13
BRANCH  12  16
ATOM     16  C   TRP A   1      45.939  -0.113  16.604  1.00  0.00    +0.000 C 
ATOM     17  O   TRP A   1      45.973  -0.846  17.585  1.00  0.00    +0.000 OA
BRANCH  16  18
ATOM     18  OXT TRP A   1      44.771   0.293  16.055  1.00  0.00    +0.000 OA
ATOM     19  HXT TRP A   1      44.004  -0.266  16.297  1.00  0.00    +0.000 HD
ENDBRANCH  16  18
ENDBRANCH  12  16
ENDBRANCH  11  12
ENDBRANCH   7  11
TORSDOF 5
ENDMDL
MODEL 2
REMARK VINA RESULT:    -5.281     16.509     17.967
REMARK INTER + INTRA:          -6.794
REMARK INTER:                  -6.458
REMARK INTRA:                  -0.336
REMARK UNBOUND:                -0.278
REMARK  Name = 
REMARK  5 active torsions:
REMARK  status: ('A' for Active; 'I' for Inactive)
REMARK    1  A    between atoms: CG_7  and  CB_10
REMARK    2  A    between atoms: CB_10  and  CA_11
REMARK    3  A    between atoms: CA_11  and  C_12
REMARK    4  A    between atoms: CA_11  and  N_15
REMARK    5  A    between atoms: C_12  and  OXT_14
REMARK                            x       y       z     vdW  Elec       q    Type
REMARK                         _______ _______ _______ _____ _____    ______ ____
ROOT
ATOM      1  CZ3 TRP A   1      36.867   2.145   4.203  1.00  0.00    +0.000 A 
ATOM      2  CH2 TRP A   1      38.104   2.630   4.620  1.00  0.00    +0.000 A 
ATOM      3  CZ2 TRP A   1      38.383   3.999   4.609  1.00  0.00    +0.000 A 
ATOM      4  CE2 TRP A   1      37.372   4.863   4.169  1.00  0.00    +0.000 A 
ATOM      5  CD2 TRP A   1      36.121   4.411   3.753  1.00  0.00    +0.000 A 
ATOM      6  CE3 TRP A   1      35.868   3.023   3.767  1.00  0.00    +0.000 A 
ATOM      7  CG  TRP A   1      35.343   5.561   3.405  1.00  0.00    +0.000 A 
ATOM      8  CD1 TRP A   1      36.152   6.663   3.596  1.00  0.00    +0.000 A 
ATOM      9  NE1 TRP A   1      37.372   6.232   4.044  1.00  0.00    +0.000 N 
ATOM     10  HE1 TRP A   1      38.160   6.829   4.258  1.00  0.00    +0.000 HD
ENDROOT
BRANCH   7  11
ATOM     11  CB  TRP A   1      33.914   5.577   2.944  1.00  0.00    +0.000 C 
BRANCH  11  12
ATOM     12  CA  TRP A   1      33.744   6.176   1.539  1.00  0.00    +0.000 C 
BRANCH  12  13
ATOM     13  N   TRP A   1      32.300   6.227   1.183  1.00  0.00    +0.000 NA
ATOM     14  H1  TRP A   1      31.986   7.196   1.308  1.00  0.00    +0.000 HD
ATOM     15  H2  TRP A   1      31.780   5.719   1.903  1.00  0.00    +0.000 HD
ENDBRANCH  12  13
BRANCH  12  16
ATOM     16  C   TRP A   1      34.497   5.338   0.491  1.00  0.00    +0.000 C 
ATOM     17  O   TRP A   1      34.145   4.220   0.132  1.00  0.00    +0.000 OA
BRANCH  16  18
ATOM     18  OXT TRP A   1      35.578   5.952  -0.042  1.00  0.00    +0.000 OA
ATOM     19  HXT TRP A   1      36.082   6.494   0.600  1.00  0.00    +0.000 HD
ENDBRANCH  16  18
ENDBRANCH  12  16
ENDBRANCH  11  12
ENDBRANCH   7  11
TORSDOF 5
ENDMDL
MODEL 3
REMARK VINA RESULT:    -5.031     17.118     18.562
REMARK INTER + INTRA:          -6.485
REMARK INTER:                  -6.281
REMARK INTRA:                  -0.204
REMARK UNBOUND:                -0.278
REMARK  Name = 
REMARK  5 active torsions:
REMARK  status: ('A' for Active; 'I' for Inactive)
REMARK    1  A    between atoms: CG_7  and  CB_10
REMARK    2  A    between atoms: CB_10  and  CA_11
REMARK    3  A    between atoms: CA_11  and  C_12
REMARK    4  A    between atoms: CA_11  and  N_15
REMARK    5  A    between atoms: C_12  and  OXT_14
REMARK                            x       y       z     vdW  Elec       q    Type
REMARK                         _______ _______ _______ _____ _____    ______ ____
ROOT
ATOM      1  CZ3 TRP A   1      37.742   4.345   5.044  1.00  0.00    +0.000 A 
ATOM      2  CH2 TRP A   1      37.427   2.995   5.174  1.00  0.00    +0.000 A 
ATOM      3  CZ2 TRP A   1      36.376   2.427   4.448  1.00  0.00    +0.000 A 
ATOM      4  CE2 TRP A   1      35.660   3.262   3.583  1.00  0.00    +0.000 A 
ATOM      5  CD2 TRP A   1      35.956   4.616   3.423  1.00  0.00    +0.000 A 
ATOM      6  CE3 TRP A   1      37.016   5.166   4.174  1.00  0.00    +0.000 A 
ATOM      7  CG  TRP A   1      35.048   5.141   2.449  1.00  0.00    +0.000 A 
ATOM      8  CD1 TRP A   1      34.221   4.102   2.073  1.00  0.00    +0.000 A 
ATOM      9  NE1 TRP A   1      34.589   2.982   2.768  1.00  0.00    +0.000 N 
ATOM     10  HE1 TRP A   1      34.146   2.075   2.692  1.00  0.00    +0.000 HD
ENDROOT
BRANCH   7  11
ATOM     11  CB  TRP A   1      35.011   6.544   1.916  1.00  0.00    +0.000 C 
BRANCH  11  12
ATOM     12  CA  TRP A   1      34.786   6.603   0.397  1.00  0.00    +0.000 C 
BRANCH  12  13
ATOM     13  N   TRP A   1      36.056   6.294  -0.314  1.00  0.00    +0.000 NA
ATOM     14  H1  TRP A   1      35.808   5.929  -1.241  1.00  0.00    +0.000 HD
ATOM     15  H2  TRP A   1      36.487   5.487   0.145  1.00  0.00    +0.000 HD
ENDBRANCH  12  13
BRANCH  12  16
ATOM     16  C   TRP A   1      34.290   7.996  -0.029  1.00  0.00    +0.000 C 
ATOM     17  O   TRP A   1      33.150   8.402   0.165  1.00  0.00    +0.000 OA
BRANCH  16  18
ATOM     18  OXT TRP A   1      35.234   8.769  -0.613  1.00  0.00    +0.000 OA
ATOM     19  HXT TRP A   1      35.579   9.479  -0.033  1.00  0.00    +0.000 HD
ENDBRANCH  16  18
ENDBRANCH  12  16
ENDBRANCH  11  12
ENDBRANCH   7  11
TORSDOF 5
ENDMDL
MODEL 4
REMARK VINA RESULT:    -4.914      2.098      2.771
REMARK INTER + INTRA:          -6.341
REMARK INTER:                  -6.121
REMARK INTRA:                  -0.220
REMARK UNBOUND:                -0.278
REMARK  Name = 
REMARK  5 active torsions:
REMARK  status: ('A' for Active; 'I' for Inactive)
REMARK    1  A    between atoms: CG_7  and  CB_10
REMARK    2  A    between atoms: CB_10  and  CA_11
REMARK    3  A    between atoms: CA_11  and  C_12
REMARK    4  A    between atoms: CA_11  and  N_15
REMARK    5  A    between atoms: C_12  and  OXT_14
REMARK                            x       y       z     vdW  Elec       q    Type
REMARK                         _______ _______ _______ _____ _____    ______ ____
ROOT
ATOM      1  CZ3 TRP A   1      46.904   3.070  11.542  1.00  0.00    +0.000 A 
ATOM      2  CH2 TRP A   1      46.359   2.449  10.422  1.00  0.00    +0.000 A 
ATOM      3  CZ2 TRP A   1      46.290   1.056  10.332  1.00  0.00    +0.000 A 
ATOM      4  CE2 TRP A   1      46.783   0.311  11.411  1.00  0.00    +0.000 A 
ATOM      5  CD2 TRP A   1      47.326   0.903  12.551  1.00  0.00    +0.000 A 
ATOM      6  CE3 TRP A   1      47.391   2.311  12.612  1.00  0.00    +0.000 A 
ATOM      7  CG  TRP A   1      47.695  -0.151  13.447  1.00  0.00    +0.000 A 
ATOM      8  CD1 TRP A   1      47.389  -1.339  12.813  1.00  0.00    +0.000 A 
ATOM      9  NE1 TRP A   1      46.852  -1.050  11.587  1.00  0.00    +0.000 N 
ATOM     10  HE1 TRP A   1      46.545  -1.735  10.909  1.00  0.00    +0.000 HD
ENDROOT
BRANCH   7  11
ATOM     11  CB  TRP A   1      48.280  -0.002  14.821  1.00  0.00    +0.000 C 
BRANCH  11  12
ATOM     12  CA  TRP A   1      47.366   0.774  15.781  1.00  0.00    +0.000 C 
BRANCH  12  13
ATOM     13  N   TRP A   1      48.177   1.387  16.868  1.00  0.00    +0.000 NA
ATOM     14  H1  TRP A   1      47.666   1.251  17.747  1.00  0.00    +0.000 HD
ATOM     15  H2  TRP A   1      48.156   2.402  16.742  1.00  0.00    +0.000 HD
ENDBRANCH  12  13
BRANCH  12  16
ATOM     16  C   TRP A   1      46.307  -0.156  16.401  1.00  0.00    +0.000 C 
ATOM     17  O   TRP A   1      46.576  -1.193  16.996  1.00  0.00    +0.000 OA
BRANCH  16  18
ATOM     18  OXT TRP A   1      45.034   0.283  16.268  1.00  0.00    +0.000 OA
ATOM     19  HXT TRP A   1      44.944   1.257  16.316  1.00  0.00    +0.000 HD
ENDBRANCH  16  18
ENDBRANCH  12  16
ENDBRANCH  11  12
ENDBRANCH   7  11
TORSDOF 5
ENDMDL
MODEL 5
REMARK VINA RESULT:    -4.856      1.753      2.339
REMARK INTER + INTRA:          -6.269
REMARK INTER:                  -5.904
REMARK INTRA:                  -0.364
REMARK UNBOUND:                -0.278
REMARK  Name = 
REMARK  5 active torsions:
REMARK  status: ('A' for Active; 'I' for Inactive)
REMARK    1  A    between atoms: CG_7  and  CB_10
REMARK    2  A    between atoms: CB_10  and  CA_11
REMARK    3  A    between atoms: CA_11  and  C_12
REMARK    4  A    between atoms: CA_11  and  N_15
REMARK    5  A    between atoms: C_12  and  OXT_14
REMARK                            x       y       z     vdW  Elec       q    Type
REMARK                         _______ _______ _______ _____ _____    ______ ____
ROOT
ATOM      1  CZ3 TRP A   1      48.711  -3.141  12.054  1.00  0.00    +0.000 A 
ATOM      2  CH2 TRP A   1      47.859  -3.157  10.952  1.00  0.00    +0.000 A 
ATOM      3  CZ2 TRP A   1      46.989  -2.094  10.698  1.00  0.00    +0.000 A 
ATOM      4  CE2 TRP A   1      47.009  -1.013  11.587  1.00  0.00    +0.000 A 
ATOM      5  CD2 TRP A   1      47.856  -0.962  12.694  1.00  0.00    +0.000 A 
ATOM      6  CE3 TRP A   1      48.719  -2.051  12.932  1.00  0.00    +0.000 A 
ATOM      7  CG  TRP A   1      47.627   0.290  13.352  1.00  0.00    +0.000 A 
ATOM      8  CD1 TRP A   1      46.638   0.939  12.640  1.00  0.00    +0.000 A 
ATOM      9  NE1 TRP A   1      46.266   0.144  11.590  1.00  0.00    +0.000 N 
ATOM     10  HE1 TRP A   1      45.553   0.371  10.909  1.00  0.00    +0.000 HD
ENDROOT
BRANCH   7  11
ATOM     11  CB  TRP A   1      48.338   0.813  14.565  1.00  0.00    +0.000 C 
BRANCH  11  12
ATOM     12  CA  TRP A   1      47.417   0.948  15.788  1.00  0.00    +0.000 C 
BRANCH  12  13
ATOM     13  N   TRP A   1      48.181   1.506  16.937  1.00  0.00    +0.000 NA
ATOM     14  H1  TRP A   1      47.729   1.174  17.797  1.00  0.00    +0.000 HD
ATOM     15  H2  TRP A   1      48.016   2.516  16.964  1.00  0.00    +0.000 HD
ENDBRANCH  12  13
BRANCH  12  16
ATOM     16  C   TRP A   1      46.829  -0.418  16.184  1.00  0.00    +0.000 C 
ATOM     17  O   TRP A   1      47.510  -1.396  16.468  1.00  0.00    +0.000 OA
BRANCH  16  18
ATOM     18  OXT TRP A   1      45.477  -0.450  16.232  1.00  0.00    +0.000 OA
ATOM     19  HXT TRP A   1      45.114  -1.276  16.614  1.00  0.00    +0.000 HD
ENDBRANCH  16  18
ENDBRANCH  12  16
ENDBRANCH  11  12
ENDBRANCH   7  11
TORSDOF 5
ENDMDL
MODEL 6
REMARK VINA RESULT:    -4.844     21.070     22.381
REMARK INTER + INTRA:          -6.254
REMARK INTER:                  -5.981
REMARK INTRA:                  -0.273
REMARK UNBOUND:                -0.278
REMARK  Name = 
REMARK  5 active torsions:
REMARK  status: ('A' for Active; 'I' for Inactive)
REMARK    1  A    between atoms: CG_7  and  CB_10
REMARK    2  A    between atoms: CB_10  and  CA_11
REMARK    3  A    between atoms: CA_11  and  C_12
REMARK    4  A    between atoms: CA_11  and  N_15
REMARK    5  A    between atoms: C_12  and  OXT_14
REMARK                            x       y       z     vdW  Elec       q    Type
REMARK                         _______ _______ _______ _____ _____    ______ ____
ROOT
ATOM      1  CZ3 TRP A   1      33.550   5.224   1.767  1.00  0.00    +0.000 A 
ATOM      2  CH2 TRP A   1      34.717   5.070   1.023  1.00  0.00    +0.000 A 
ATOM      3  CZ2 TRP A   1      35.175   6.088   0.182  1.00  0.00    +0.000 A 
ATOM      4  CE2 TRP A   1      34.423   7.267   0.122  1.00  0.00    +0.000 A 
ATOM      5  CD2 TRP A   1      33.256   7.457   0.861  1.00  0.00    +0.000 A 
ATOM      6  CE3 TRP A   1      32.811   6.410   1.695  1.00  0.00    +0.000 A 
ATOM      7  CG  TRP A   1      32.777   8.775   0.575  1.00  0.00    +0.000 A 
ATOM      8  CD1 TRP A   1      33.649   9.327  -0.342  1.00  0.00    +0.000 A 
ATOM      9  NE1 TRP A   1      34.628   8.409  -0.615  1.00  0.00    +0.000 N 
ATOM     10  HE1 TRP A   1      35.395   8.548  -1.260  1.00  0.00    +0.000 HD
ENDROOT
BRANCH   7  11
ATOM     11  CB  TRP A   1      31.572   9.445   1.170  1.00  0.00    +0.000 C 
BRANCH  11  12
ATOM     12  CA  TRP A   1      30.248   8.912   0.601  1.00  0.00    +0.000 C 
BRANCH  12  13
ATOM     13  N   TRP A   1      29.620   9.943  -0.270  1.00  0.00    +0.000 NA
ATOM     14  H1  TRP A   1      29.045   9.451  -0.962  1.00  0.00    +0.000 HD
ATOM     15  H2  TRP A   1      30.358  10.365  -0.840  1.00  0.00    +0.000 HD
ENDBRANCH  12  13
BRANCH  12  16
ATOM     16  C   TRP A   1      29.274   8.544   1.735  1.00  0.00    +0.000 C 
ATOM     17  O   TRP A   1      29.110   7.402   2.149  1.00  0.00    +0.000 OA
BRANCH  16  18
ATOM     18  OXT TRP A   1      28.626   9.600   2.278  1.00  0.00    +0.000 OA
ATOM     19  HXT TRP A   1      27.652   9.492   2.313  1.00  0.00    +0.000 HD
ENDBRANCH  16  18
ENDBRANCH  12  16
ENDBRANCH  11  12
ENDBRANCH   7  11
TORSDOF 5
ENDMDL
MODEL 7
REMARK VINA RESULT:    -4.783     17.010     18.335
REMARK INTER + INTRA:          -6.179
REMARK INTER:                  -6.135
REMARK INTRA:                  -0.045
REMARK UNBOUND:                -0.278
REMARK  Name = 
REMARK  5 active torsions:
REMARK  status: ('A' for Active; 'I' for Inactive)
REMARK    1  A    between atoms: CG_7  and  CB_10
REMARK    2  A    between atoms: CB_10  and  CA_11
REMARK    3  A    between atoms: CA_11  and  C_12
REMARK    4  A    between atoms: CA_11  and  N_15
REMARK    5  A    between atoms: C_12  and  OXT_14
REMARK                            x       y       z     vdW  Elec       q    Type
REMARK                         _______ _______ _______ _____ _____    ______ ____
ROOT
ATOM      1  CZ3 TRP A   1      32.217   6.626   4.784  1.00  0.00    +0.000 A 
ATOM      2  CH2 TRP A   1      31.640   7.268   3.691  1.00  0.00    +0.000 A 
ATOM      3  CZ2 TRP A   1      31.975   6.907   2.384  1.00  0.00    +0.000 A 
ATOM      4  CE2 TRP A   1      32.907   5.876   2.214  1.00  0.00    +0.000 A 
ATOM      5  CD2 TRP A   1      33.496   5.207   3.287  1.00  0.00    +0.000 A 
ATOM      6  CE3 TRP A   1      33.146   5.596   4.596  1.00  0.00    +0.000 A 
ATOM      7  CG  TRP A   1      34.364   4.206   2.743  1.00  0.00    +0.000 A 
ATOM      8  CD1 TRP A   1      34.291   4.318   1.369  1.00  0.00    +0.000 A 
ATOM      9  NE1 TRP A   1      33.422   5.330   1.062  1.00  0.00    +0.000 N 
ATOM     10  HE1 TRP A   1      33.186   5.633   0.126  1.00  0.00    +0.000 HD
ENDROOT
BRANCH   7  11
ATOM     11  CB  TRP A   1      35.180   3.208   3.512  1.00  0.00    +0.000 C 
BRANCH  11  12
ATOM     12  CA  TRP A   1      36.399   3.836   4.205  1.00  0.00    +0.000 C 
BRANCH  12  13
ATOM     13  N   TRP A   1      36.792   5.088   3.502  1.00  0.00    +0.000 NA
ATOM     14  H1  TRP A   1      35.933   5.619   3.319  1.00  0.00    +0.000 HD
ATOM     15  H2  TRP A   1      37.111   4.834   2.563  1.00  0.00    +0.000 HD
ENDBRANCH  12  13
BRANCH  12  16
ATOM     16  C   TRP A   1      37.590   2.860   4.208  1.00  0.00    +0.000 C 
ATOM     17  O   TRP A   1      37.471   1.640   4.202  1.00  0.00    +0.000 OA
BRANCH  16  18
ATOM     18  OXT TRP A   1      38.802   3.460   4.179  1.00  0.00    +0.000 OA
ATOM     19  HXT TRP A   1      38.763   4.423   4.002  1.00  0.00    +0.000 HD
ENDBRANCH  16  18
ENDBRANCH  12  16
ENDBRANCH  11  12
ENDBRANCH   7  11
TORSDOF 5
ENDMDL
MODEL 8
REMARK VINA RESULT:    -4.713     19.840     21.155
REMARK INTER + INTRA:          -6.092
REMARK INTER:                  -5.848
REMARK INTRA:                  -0.244
REMARK UNBOUND:                -0.278
REMARK  Name = 
REMARK  5 active torsions:
REMARK  status: ('A' for Active; 'I' for Inactive)
REMARK    1  A    between atoms: CG_7  and  CB_10
REMARK    2  A    between atoms: CB_10  and  CA_11
REMARK    3  A    between atoms: CA_11  and  C_12
REMARK    4  A    between atoms: CA_11  and  N_15
REMARK    5  A    between atoms: C_12  and  OXT_14
REMARK                            x       y       z     vdW  Elec       q    Type
REMARK                         _______ _______ _______ _____ _____    ______ ____
ROOT
ATOM      1  CZ3 TRP A   1      28.828   7.558   3.039  1.00  0.00    +0.000 A 
ATOM      2  CH2 TRP A   1      28.900   7.672   4.425  1.00  0.00    +0.000 A 
ATOM      3  CZ2 TRP A   1      30.107   7.478   5.102  1.00  0.00    +0.000 A 
ATOM      4  CE2 TRP A   1      31.239   7.173   4.337  1.00  0.00    +0.000 A 
ATOM      5  CD2 TRP A   1      31.202   7.060   2.947  1.00  0.00    +0.000 A 
ATOM      6  CE3 TRP A   1      29.970   7.253   2.289  1.00  0.00    +0.000 A 
ATOM      7  CG  TRP A   1      32.533   6.771   2.505  1.00  0.00    +0.000 A 
ATOM      8  CD1 TRP A   1      33.321   6.693   3.636  1.00  0.00    +0.000 A 
ATOM      9  NE1 TRP A   1      32.532   6.924   4.730  1.00  0.00    +0.000 N 
ATOM     10  HE1 TRP A   1      32.850   6.920   5.691  1.00  0.00    +0.000 HD
ENDROOT
BRANCH   7  11
ATOM     11  CB  TRP A   1      32.996   6.607   1.087  1.00  0.00    +0.000 C 
BRANCH  11  12
ATOM     12  CA  TRP A   1      34.412   6.022   0.982  1.00  0.00    +0.000 C 
BRANCH  12  13
ATOM     13  N   TRP A   1      35.082   6.535  -0.244  1.00  0.00    +0.000 NA
ATOM     14  H1  TRP A   1      34.347   6.784  -0.915  1.00  0.00    +0.000 HD
ATOM     15  H2  TRP A   1      35.554   5.748  -0.698  1.00  0.00    +0.000 HD
ENDBRANCH  12  13
BRANCH  12  16
ATOM     16  C   TRP A   1      34.366   4.484   0.929  1.00  0.00    +0.000 C 
ATOM     17  O   TRP A   1      34.402   3.767   1.923  1.00  0.00    +0.000 OA
BRANCH  16  18
ATOM     18  OXT TRP A   1      34.245   3.972  -0.317  1.00  0.00    +0.000 OA
ATOM     19  HXT TRP A   1      35.025   4.131  -0.888  1.00  0.00    +0.000 HD
ENDBRANCH  16  18
ENDBRANCH  12  16
ENDBRANCH  11  12
ENDBRANCH   7  11
TORSDOF 5
ENDMDL
MODEL 9
REMARK VINA RESULT:    -4.694     20.055     21.389
REMARK INTER + INTRA:          -6.070
REMARK INTER:                  -5.818
REMARK INTRA:                  -0.252
REMARK UNBOUND:                -0.278
REMARK  Name = 
REMARK  5 active torsions:
REMARK  status: ('A' for Active; 'I' for Inactive)
REMARK    1  A    between atoms: CG_7  and  CB_10
REMARK    2  A    between atoms: CB_10  and  CA_11
REMARK    3  A    between atoms: CA_11  and  C_12
REMARK    4  A    between atoms: CA_11  and  N_15
REMARK    5  A    between atoms: C_12  and  OXT_14
REMARK                            x       y       z     vdW  Elec       q    Type
REMARK                         _______ _______ _______ _____ _____    ______ ____
ROOT
ATOM      1  CZ3 TRP A   1      30.509   6.203   5.543  1.00  0.00    +0.000 A 
ATOM      2  CH2 TRP A   1      29.422   7.019   5.241  1.00  0.00    +0.000 A 
ATOM      3  CZ2 TRP A   1      29.319   7.653   4.000  1.00  0.00    +0.000 A 
ATOM      4  CE2 TRP A   1      30.344   7.433   3.072  1.00  0.00    +0.000 A 
ATOM      5  CD2 TRP A   1      31.441   6.616   3.340  1.00  0.00    +0.000 A 
ATOM      6  CE3 TRP A   1      31.525   5.994   4.604  1.00  0.00    +0.000 A 
ATOM      7  CG  TRP A   1      32.262   6.601   2.167  1.00  0.00    +0.000 A 
ATOM      8  CD1 TRP A   1      31.651   7.425   1.242  1.00  0.00    +0.000 A 
ATOM      9  NE1 TRP A   1      30.506   7.928   1.801  1.00  0.00    +0.000 N 
ATOM     10  HE1 TRP A   1      29.867   8.567   1.346  1.00  0.00    +0.000 HD
ENDROOT
BRANCH   7  11
ATOM     11  CB  TRP A   1      33.529   5.824   1.963  1.00  0.00    +0.000 C 
BRANCH  11  12
ATOM     12  CA  TRP A   1      34.004   5.823   0.502  1.00  0.00    +0.000 C 
BRANCH  12  13
ATOM     13  N   TRP A   1      34.398   4.445   0.099  1.00  0.00    +0.000 NA
ATOM     14  H1  TRP A   1      34.069   3.805   0.831  1.00  0.00    +0.000 HD
ATOM     15  H2  TRP A   1      35.417   4.376   0.170  1.00  0.00    +0.000 HD
ENDBRANCH  12  13
BRANCH  12  16
ATOM     16  C   TRP A   1      35.203   6.769   0.314  1.00  0.00    +0.000 C 
ATOM     17  O   TRP A   1      35.259   7.899   0.786  1.00  0.00    +0.000 OA
BRANCH  16  18
ATOM     18  OXT TRP A   1      36.227   6.238  -0.392  1.00  0.00    +0.000 OA
ATOM     19  HXT TRP A   1      36.371   6.665  -1.262  1.00  0.00    +0.000 HD
ENDBRANCH  16  18
ENDBRANCH  12  16
ENDBRANCH  11  12
ENDBRANCH   7  11
TORSDOF 5
ENDMDL
