REMARK  Name = 
REMARK  7 active torsions:
REMARK  status: ('A' for Active; 'I' for Inactive)
REMARK    1  A    between atoms: CG_1  and  CB_2
REMARK    2  A    between atoms: CG_1  and  CD_8
REMARK    3  A    between atoms: CB_2  and  CA_3
REMARK    4  A    between atoms: CA_3  and  C_4
REMARK    5  A    between atoms: CA_3  and  N_7
REMARK    6  A    between atoms: C_4  and  OXT_6
REMARK    7  A    between atoms: CD_8  and  NE_9
REMARK                            x       y       z     vdW  Elec       q    Type
REMARK                         _______ _______ _______ _____ _____    ______ ____
ROOT
ATOM      1  CG  ARG A   1       1.199   0.082   0.082  1.00  0.00    +0.000 C 
ENDROOT
BRANCH   1   2
ATOM      2  CB  ARG A   1       0.531   0.496  -1.232  1.00  0.00    +0.000 C 
BRANCH   2   3
ATOM      3  CA  ARG A   1       0.855  -0.396  -2.438  1.00  0.00    +0.000 C 
BRANCH   3   4
ATOM      4  N   ARG A   1       0.345   0.274  -3.659  1.00  0.00    +0.000 NA
ATOM      5  H1  ARG A   1      -0.676   0.324  -3.582  1.00  0.00    +0.000 HD
ATOM      6  H2  ARG A   1       0.487  -0.354  -4.455  1.00  0.00    +0.000 HD
ENDBRANCH   3   4
BRANCH   3   7
ATOM      7  C   ARG A   1       0.205  -1.787  -2.312  1.00  0.00    +0.000 C 
ATOM      8  O   ARG A   1      -0.863  -2.091  -2.828  1.00  0.00    +0.000 OA
BRANCH   7   9
ATOM      9  OXT ARG A   1       0.934  -2.675  -1.599  1.00  0.00    +0.000 OA
ATOM     10  HXT ARG A   1       1.765  -2.323  -1.226  1.00  0.00    +0.000 HD
ENDBRANCH   7   9
ENDBRANCH   3   7
ENDBRANCH   2   3
ENDBRANCH   1   2
BRANCH   1  11
ATOM     11  CD  ARG A   1       2.724   0.198   0.049  1.00  0.00    +0.000 C 
BRANCH  11  12
ATOM     12  NE  ARG A   1       3.236  -0.343   1.300  1.00  0.00    +0.000 NA
ATOM     13  CZ  ARG A   1       4.502  -0.376   1.477  1.00  0.00    +0.000 C 
ATOM     14  NH1 ARG A   1       5.502   0.022   0.661  1.00  0.00    +0.000 N 
ATOM     15  NH2 ARG A   1       5.009  -0.874   2.624  1.00  0.00    +0.000 N 
ATOM     16 HH11 ARG A   1       5.216   0.649  -0.080  1.00  0.00    +0.000 HD
ATOM     17 HH12 ARG A   1       6.281   0.414   1.179  1.00  0.00    +0.000 HD
ATOM     18 HH21 ARG A   1       4.268  -1.294   3.177  1.00  0.00    +0.000 HD
ATOM     19 HH22 ARG A   1       5.756  -1.538   2.465  1.00  0.00    +0.000 HD
ENDBRANCH  11  12
ENDBRANCH   1  11
TORSDOF 7
