MODEL 1
REMARK VINA RESULT:    -6.218      0.000      0.000
REMARK INTER + INTRA:          -8.578
REMARK INTER:                  -8.399
REMARK INTRA:                  -0.178
REMARK UNBOUND:                -0.178
REMARK  Name = 
REMARK  7 active torsions:
REMARK  status: ('A' for Active; 'I' for Inactive)
REMARK    1  A    between atoms: CG_1  and  CB_2
REMARK    2  A    between atoms: CG_1  and  CD_8
REMARK    3  A    between atoms: CB_2  and  CA_3
REMARK    4  A    between atoms: CA_3  and  C_4
REMARK    5  A    between atoms: CA_3  and  N_7
REMARK    6  A    between atoms: C_4  and  OXT_6
REMARK    7  A    between atoms: CD_8  and  NE_9
REMARK                            x       y       z     vdW  Elec       q    Type
REMARK                         _______ _______ _______ _____ _____    ______ ____
ROOT
ATOM      1  CG  ARG A   1       6.191   2.956  36.513  1.00  0.00    +0.000 C 
ENDROOT
BRANCH   1   2
ATOM      2  CB  ARG A   1       7.498   2.846  35.723  1.00  0.00    +0.000 C 
BRANCH   2   3
ATOM      3  CA  ARG A   1       7.333   2.699  34.205  1.00  0.00    +0.000 C 
BRANCH   3   4
ATOM      4  N   ARG A   1       6.263   1.704  33.950  1.00  0.00    +0.000 NA
ATOM      5  H1  ARG A   1       6.669   0.948  33.389  1.00  0.00    +0.000 HD
ATOM      6  H2  ARG A   1       5.577   2.122  33.315  1.00  0.00    +0.000 HD
ENDBRANCH   3   4
BRANCH   3   7
ATOM      7  C   ARG A   1       8.635   2.229  33.530  1.00  0.00    +0.000 C 
ATOM      8  O   ARG A   1       9.747   2.361  34.025  1.00  0.00    +0.000 OA
BRANCH   7   9
ATOM      9  OXT ARG A   1       8.451   1.619  32.337  1.00  0.00    +0.000 OA
ATOM     10  HXT ARG A   1       7.675   1.027  32.291  1.00  0.00    +0.000 HD
ENDBRANCH   7   9
ENDBRANCH   3   7
ENDBRANCH   2   3
ENDBRANCH   1   2
BRANCH   1  11
ATOM     11  CD  ARG A   1       5.495   4.308  36.348  1.00  0.00    +0.000 C 
BRANCH  11  12
ATOM     12  NE  ARG A   1       4.065   4.093  36.512  1.00  0.00    +0.000 NA
ATOM     13  CZ  ARG A   1       3.539   4.335  37.653  1.00  0.00    +0.000 C 
ATOM     14  NH1 ARG A   1       4.110   4.776  38.794  1.00  0.00    +0.000 N 
ATOM     15  NH2 ARG A   1       2.217   4.142  37.839  1.00  0.00    +0.000 N 
ATOM     16 HH11 ARG A   1       5.019   5.203  38.672  1.00  0.00    +0.000 HD
ATOM     17 HH12 ARG A   1       3.493   5.392  39.314  1.00  0.00    +0.000 HD
ATOM     18 HH21 ARG A   1       1.815   3.686  37.026  1.00  0.00    +0.000 HD
ATOM     19 HH22 ARG A   1       2.013   3.618  38.680  1.00  0.00    +0.000 HD
ENDBRANCH  11  12
ENDBRANCH   1  11
TORSDOF 7
ENDMDL
MODEL 2
REMARK VINA RESULT:    -6.187      3.744      6.151
REMARK INTER + INTRA:          -8.535
REMARK INTER:                  -8.382
REMARK INTRA:                  -0.153
REMARK UNBOUND:                -0.178
REMARK  Name = 
REMARK  7 active torsions:
REMARK  status: ('A' for Active; 'I' for Inactive)
REMARK    1  A    between atoms: CG_1  and  CB_2
REMARK    2  A    between atoms: CG_1  and  CD_8
REMARK    3  A    between atoms: CB_2  and  CA_3
REMARK    4  A    between atoms: CA_3  and  C_4
REMARK    5  A    between atoms: CA_3  and  N_7
REMARK    6  A    between atoms: C_4  and  OXT_6
REMARK    7  A    between atoms: CD_8  and  NE_9
REMARK                            x       y       z     vdW  Elec       q    Type
REMARK                         _______ _______ _______ _____ _____    ______ ____
ROOT
ATOM      1  CG  ARG A   1       6.493   2.771  36.381  1.00  0.00    +0.000 C 
ENDROOT
BRANCH   1   2
ATOM      2  CB  ARG A   1       5.927   3.910  37.233  1.00  0.00    +0.000 C 
BRANCH   2   3
ATOM      3  CA  ARG A   1       4.627   4.534  36.707  1.00  0.00    +0.000 C 
BRANCH   3   4
ATOM      4  N   ARG A   1       4.928   5.913  36.250  1.00  0.00    +0.000 NA
ATOM      5  H1  ARG A   1       4.337   6.554  36.789  1.00  0.00    +0.000 HD
ATOM      6  H2  ARG A   1       4.575   6.020  35.295  1.00  0.00    +0.000 HD
ENDBRANCH   3   4
BRANCH   3   7
ATOM      7  C   ARG A   1       3.536   4.585  37.794  1.00  0.00    +0.000 C 
ATOM      8  O   ARG A   1       2.384   4.209  37.623  1.00  0.00    +0.000 OA
BRANCH   7   9
ATOM      9  OXT ARG A   1       3.965   5.059  38.985  1.00  0.00    +0.000 OA
ATOM     10  HXT ARG A   1       4.540   5.847  38.935  1.00  0.00    +0.000 HD
ENDBRANCH   7   9
ENDBRANCH   3   7
ENDBRANCH   2   3
ENDBRANCH   1   2
BRANCH   1  11
ATOM     11  CD  ARG A   1       7.687   3.193  35.522  1.00  0.00    +0.000 C 
BRANCH  11  12
ATOM     12  NE  ARG A   1       7.496   2.630  34.193  1.00  0.00    +0.000 NA
ATOM     13  CZ  ARG A   1       8.527   2.245  33.541  1.00  0.00    +0.000 C 
ATOM     14  NH1 ARG A   1       9.832   2.275  33.886  1.00  0.00    +0.000 N 
ATOM     15  NH2 ARG A   1       8.385   1.722  32.305  1.00  0.00    +0.000 N 
ATOM     16 HH11 ARG A   1      10.003   2.387  34.877  1.00  0.00    +0.000 HD
ATOM     17 HH12 ARG A   1      10.338   1.474  33.525  1.00  0.00    +0.000 HD
ATOM     18 HH21 ARG A   1       7.424   1.823  31.994  1.00  0.00    +0.000 HD
ATOM     19 HH22 ARG A   1       9.023   2.128  31.633  1.00  0.00    +0.000 HD
ENDBRANCH  11  12
ENDBRANCH   1  11
TORSDOF 7
ENDMDL
MODEL 3
REMARK VINA RESULT:    -6.135     11.962     12.469
REMARK INTER + INTRA:          -8.465
REMARK INTER:                  -8.254
REMARK INTRA:                  -0.211
REMARK UNBOUND:                -0.178
REMARK  Name = 
REMARK  7 active torsions:
REMARK  status: ('A' for Active; 'I' for Inactive)
REMARK    1  A    between atoms: CG_1  and  CB_2
REMARK    2  A    between atoms: CG_1  and  CD_8
REMARK    3  A    between atoms: CB_2  and  CA_3
REMARK    4  A    between atoms: CA_3  and  C_4
REMARK    5  A    between atoms: CA_3  and  N_7
REMARK    6  A    between atoms: C_4  and  OXT_6
REMARK    7  A    between atoms: CD_8  and  NE_9
REMARK                            x       y       z     vdW  Elec       q    Type
REMARK                         _______ _______ _______ _____ _____    ______ ____
ROOT
ATOM      1  CG  ARG A   1       9.516  12.087  29.097  1.00  0.00    +0.000 C 
ENDROOT
BRANCH   1   2
ATOM      2  CB  ARG A   1       9.989  12.364  27.667  1.00  0.00    +0.000 C 
BRANCH   2   3
ATOM      3  CA  ARG A   1      11.466  12.049  27.396  1.00  0.00    +0.000 C 
BRANCH   3   4
ATOM      4  N   ARG A   1      12.011  11.335  28.576  1.00  0.00    +0.000 NA
ATOM      5  H1  ARG A   1      11.288  10.688  28.908  1.00  0.00    +0.000 HD
ATOM      6  H2  ARG A   1      12.096  12.003  29.348  1.00  0.00    +0.000 HD
ENDBRANCH   3   4
BRANCH   3   7
ATOM      7  C   ARG A   1      12.288  13.329  27.153  1.00  0.00    +0.000 C 
ATOM      8  O   ARG A   1      12.414  13.863  26.058  1.00  0.00    +0.000 OA
BRANCH   7   9
ATOM      9  OXT ARG A   1      12.848  13.848  28.270  1.00  0.00    +0.000 OA
ATOM     10  HXT ARG A   1      13.443  13.243  28.753  1.00  0.00    +0.000 HD
ENDBRANCH   7   9
ENDBRANCH   3   7
ENDBRANCH   2   3
ENDBRANCH   1   2
BRANCH   1  11
ATOM     11  CD  ARG A   1       9.172  13.356  29.877  1.00  0.00    +0.000 C 
BRANCH  11  12
ATOM     12  NE  ARG A   1       8.540  12.951  31.125  1.00  0.00    +0.000 NA
ATOM     13  CZ  ARG A   1       9.270  12.830  32.167  1.00  0.00    +0.000 C 
ATOM     14  NH1 ARG A   1      10.598  13.020  32.322  1.00  0.00    +0.000 N 
ATOM     15  NH2 ARG A   1       8.715  12.454  33.338  1.00  0.00    +0.000 N 
ATOM     16 HH11 ARG A   1      11.034  13.561  31.586  1.00  0.00    +0.000 HD
ATOM     17 HH12 ARG A   1      10.822  13.409  33.232  1.00  0.00    +0.000 HD
ATOM     18 HH21 ARG A   1       7.748  12.182  33.192  1.00  0.00    +0.000 HD
ATOM     19 HH22 ARG A   1       9.230  11.710  33.793  1.00  0.00    +0.000 HD
ENDBRANCH  11  12
ENDBRANCH   1  11
TORSDOF 7
ENDMDL
MODEL 4
REMARK VINA RESULT:    -6.026      3.376      5.514
REMARK INTER + INTRA:          -8.318
REMARK INTER:                  -7.858
REMARK INTRA:                  -0.460
REMARK UNBOUND:                -0.178
REMARK  Name = 
REMARK  7 active torsions:
REMARK  status: ('A' for Active; 'I' for Inactive)
REMARK    1  A    between atoms: CG_1  and  CB_2
REMARK    2  A    between atoms: CG_1  and  CD_8
REMARK    3  A    between atoms: CB_2  and  CA_3
REMARK    4  A    between atoms: CA_3  and  C_4
REMARK    5  A    between atoms: CA_3  and  N_7
REMARK    6  A    between atoms: C_4  and  OXT_6
REMARK    7  A    between atoms: CD_8  and  NE_9
REMARK                            x       y       z     vdW  Elec       q    Type
REMARK                         _______ _______ _______ _____ _____    ______ ____
ROOT
ATOM      1  CG  ARG A   1       6.370   4.138  35.828  1.00  0.00    +0.000 C 
ENDROOT
BRANCH   1   2
ATOM      2  CB  ARG A   1       5.651   3.790  37.134  1.00  0.00    +0.000 C 
BRANCH   2   3
ATOM      3  CA  ARG A   1       4.374   4.596  37.410  1.00  0.00    +0.000 C 
BRANCH   3   4
ATOM      4  N   ARG A   1       4.348   4.942  38.852  1.00  0.00    +0.000 NA
ATOM      5  H1  ARG A   1       4.170   5.949  38.926  1.00  0.00    +0.000 HD
ATOM      6  H2  ARG A   1       5.297   4.847  39.224  1.00  0.00    +0.000 HD
ENDBRANCH   3   4
BRANCH   3   7
ATOM      7  C   ARG A   1       3.105   3.796  37.057  1.00  0.00    +0.000 C 
ATOM      8  O   ARG A   1       3.079   2.882  36.242  1.00  0.00    +0.000 OA
BRANCH   7   9
ATOM      9  OXT ARG A   1       2.007   4.167  37.752  1.00  0.00    +0.000 OA
ATOM     10  HXT ARG A   1       2.178   4.754  38.514  1.00  0.00    +0.000 HD
ENDBRANCH   7   9
ENDBRANCH   3   7
ENDBRANCH   2   3
ENDBRANCH   1   2
BRANCH   1  11
ATOM     11  CD  ARG A   1       7.179   2.973  35.254  1.00  0.00    +0.000 C 
BRANCH  11  12
ATOM     12  NE  ARG A   1       6.707   2.733  33.897  1.00  0.00    +0.000 NA
ATOM     13  CZ  ARG A   1       5.750   1.904  33.722  1.00  0.00    +0.000 C 
ATOM     14  NH1 ARG A   1       5.064   1.169  34.624  1.00  0.00    +0.000 N 
ATOM     15  NH2 ARG A   1       5.292   1.657  32.477  1.00  0.00    +0.000 N 
ATOM     16 HH11 ARG A   1       5.146   1.492  35.579  1.00  0.00    +0.000 HD
ATOM     17 HH12 ARG A   1       4.088   1.066  34.366  1.00  0.00    +0.000 HD
ATOM     18 HH21 ARG A   1       5.893   2.105  31.791  1.00  0.00    +0.000 HD
ATOM     19 HH22 ARG A   1       5.203   0.668  32.282  1.00  0.00    +0.000 HD
ENDBRANCH  11  12
ENDBRANCH   1  11
TORSDOF 7
ENDMDL
MODEL 5
REMARK VINA RESULT:    -5.853      1.962      2.587
REMARK INTER + INTRA:          -8.084
REMARK INTER:                  -7.959
REMARK INTRA:                  -0.125
REMARK UNBOUND:                -0.178
REMARK  Name = 
REMARK  7 active torsions:
REMARK  status: ('A' for Active; 'I' for Inactive)
REMARK    1  A    between atoms: CG_1  and  CB_2
REMARK    2  A    between atoms: CG_1  and  CD_8
REMARK    3  A    between atoms: CB_2  and  CA_3
REMARK    4  A    between atoms: CA_3  and  C_4
REMARK    5  A    between atoms: CA_3  and  N_7
REMARK    6  A    between atoms: C_4  and  OXT_6
REMARK    7  A    between atoms: CD_8  and  NE_9
REMARK                            x       y       z     vdW  Elec       q    Type
REMARK                         _______ _______ _______ _____ _____    ______ ____
ROOT
ATOM      1  CG  ARG A   1       7.490   2.703  34.467  1.00  0.00    +0.000 C 
ENDROOT
BRANCH   1   2
ATOM      2  CB  ARG A   1       8.999   2.532  34.660  1.00  0.00    +0.000 C 
BRANCH   2   3
ATOM      3  CA  ARG A   1       9.754   1.984  33.441  1.00  0.00    +0.000 C 
BRANCH   3   4
ATOM      4  N   ARG A   1       8.755   1.540  32.439  1.00  0.00    +0.000 NA
ATOM      5  H1  ARG A   1       8.022   2.255  32.395  1.00  0.00    +0.000 HD
ATOM      6  H2  ARG A   1       8.262   0.725  32.815  1.00  0.00    +0.000 HD
ENDBRANCH   3   4
BRANCH   3   7
ATOM      7  C   ARG A   1      10.661   0.797  33.816  1.00  0.00    +0.000 C 
ATOM      8  O   ARG A   1      10.479  -0.351  33.429  1.00  0.00    +0.000 OA
BRANCH   7   9
ATOM      9  OXT ARG A   1      11.714   1.130  34.597  1.00  0.00    +0.000 OA
ATOM     10  HXT ARG A   1      11.829   0.578  35.394  1.00  0.00    +0.000 HD
ENDBRANCH   7   9
ENDBRANCH   3   7
ENDBRANCH   2   3
ENDBRANCH   1   2
BRANCH   1  11
ATOM     11  CD  ARG A   1       6.737   2.951  35.776  1.00  0.00    +0.000 C 
BRANCH  11  12
ATOM     12  NE  ARG A   1       5.926   4.148  35.599  1.00  0.00    +0.000 NA
ATOM     13  CZ  ARG A   1       5.338   4.641  36.622  1.00  0.00    +0.000 C 
ATOM     14  NH1 ARG A   1       5.334   4.223  37.906  1.00  0.00    +0.000 N 
ATOM     15  NH2 ARG A   1       4.576   5.748  36.492  1.00  0.00    +0.000 N 
ATOM     16 HH11 ARG A   1       6.082   3.584  38.142  1.00  0.00    +0.000 HD
ATOM     17 HH12 ARG A   1       5.308   4.999  38.558  1.00  0.00    +0.000 HD
ATOM     18 HH21 ARG A   1       4.471   5.983  35.509  1.00  0.00    +0.000 HD
ATOM     19 HH22 ARG A   1       3.672   5.654  36.935  1.00  0.00    +0.000 HD
ENDBRANCH  11  12
ENDBRANCH   1  11
TORSDOF 7
ENDMDL
MODEL 6
REMARK VINA RESULT:    -5.785      2.735      3.646
REMARK INTER + INTRA:          -7.992
REMARK INTER:                  -7.841
REMARK INTRA:                  -0.151
REMARK UNBOUND:                -0.178
REMARK  Name = 
REMARK  7 active torsions:
REMARK  status: ('A' for Active; 'I' for Inactive)
REMARK    1  A    between atoms: CG_1  and  CB_2
REMARK    2  A    between atoms: CG_1  and  CD_8
REMARK    3  A    between atoms: CB_2  and  CA_3
REMARK    4  A    between atoms: CA_3  and  C_4
REMARK    5  A    between atoms: CA_3  and  N_7
REMARK    6  A    between atoms: C_4  and  OXT_6
REMARK    7  A    between atoms: CD_8  and  NE_9
REMARK                            x       y       z     vdW  Elec       q    Type
REMARK                         _______ _______ _______ _____ _____    ______ ____
ROOT
ATOM      1  CG  ARG A   1       8.889   2.633  34.442  1.00  0.00    +0.000 C 
ENDROOT
BRANCH   1   2
ATOM      2  CB  ARG A   1       9.309   1.911  33.159  1.00  0.00    +0.000 C 
BRANCH   2   3
ATOM      3  CA  ARG A   1      10.717   1.300  33.185  1.00  0.00    +0.000 C 
BRANCH   3   4
ATOM      4  N   ARG A   1      11.514   1.931  32.105  1.00  0.00    +0.000 NA
ATOM      5  H1  ARG A   1      12.014   1.184  31.611  1.00  0.00    +0.000 HD
ATOM      6  H2  ARG A   1      12.270   2.471  32.535  1.00  0.00    +0.000 HD
ENDBRANCH   3   4
BRANCH   3   7
ATOM      7  C   ARG A   1      10.683  -0.225  32.967  1.00  0.00    +0.000 C 
ATOM      8  O   ARG A   1      11.364  -0.811  32.136  1.00  0.00    +0.000 OA
BRANCH   7   9
ATOM      9  OXT ARG A   1       9.849  -0.883  33.803  1.00  0.00    +0.000 OA
ATOM     10  HXT ARG A   1       9.879  -0.590  34.734  1.00  0.00    +0.000 HD
ENDBRANCH   7   9
ENDBRANCH   3   7
ENDBRANCH   2   3
ENDBRANCH   1   2
BRANCH   1  11
ATOM     11  CD  ARG A   1       7.390   2.532  34.731  1.00  0.00    +0.000 C 
BRANCH  11  12
ATOM     12  NE  ARG A   1       7.110   3.343  35.907  1.00  0.00    +0.000 NA
ATOM     13  CZ  ARG A   1       6.033   3.120  36.559  1.00  0.00    +0.000 C 
ATOM     14  NH1 ARG A   1       5.055   2.216  36.334  1.00  0.00    +0.000 N 
ATOM     15  NH2 ARG A   1       5.743   3.856  37.652  1.00  0.00    +0.000 N 
ATOM     16 HH11 ARG A   1       5.317   1.456  35.720  1.00  0.00    +0.000 HD
ATOM     17 HH12 ARG A   1       4.664   1.857  37.198  1.00  0.00    +0.000 HD
ATOM     18 HH21 ARG A   1       6.407   4.619  37.743  1.00  0.00    +0.000 HD
ATOM     19 HH22 ARG A   1       4.794   4.207  37.646  1.00  0.00    +0.000 HD
ENDBRANCH  11  12
ENDBRANCH   1  11
TORSDOF 7
ENDMDL
MODEL 7
REMARK VINA RESULT:    -5.453      3.764      6.761
REMARK INTER + INTRA:          -7.544
REMARK INTER:                  -7.407
REMARK INTRA:                  -0.136
REMARK UNBOUND:                -0.178
REMARK  Name = 
REMARK  7 active torsions:
REMARK  status: ('A' for Active; 'I' for Inactive)
REMARK    1  A    between atoms: CG_1  and  CB_2
REMARK    2  A    between atoms: CG_1  and  CD_8
REMARK    3  A    between atoms: CB_2  and  CA_3
REMARK    4  A    between atoms: CA_3  and  C_4
REMARK    5  A    between atoms: CA_3  and  N_7
REMARK    6  A    between atoms: C_4  and  OXT_6
REMARK    7  A    between atoms: CD_8  and  NE_9
REMARK                            x       y       z     vdW  Elec       q    Type
REMARK                         _______ _______ _______ _____ _____    ______ ____
ROOT
ATOM      1  CG  ARG A   1       8.580   2.389  33.873  1.00  0.00    +0.000 C 
ENDROOT
BRANCH   1   2
ATOM      2  CB  ARG A   1       7.811   2.823  35.124  1.00  0.00    +0.000 C 
BRANCH   2   3
ATOM      3  CA  ARG A   1       6.397   3.361  34.866  1.00  0.00    +0.000 C 
BRANCH   3   4
ATOM      4  N   ARG A   1       6.231   4.614  35.641  1.00  0.00    +0.000 NA
ATOM      5  H1  ARG A   1       6.696   5.365  35.120  1.00  0.00    +0.000 HD
ATOM      6  H2  ARG A   1       6.792   4.543  36.495  1.00  0.00    +0.000 HD
ENDBRANCH   3   4
BRANCH   3   7
ATOM      7  C   ARG A   1       5.314   2.352  35.294  1.00  0.00    +0.000 C 
ATOM      8  O   ARG A   1       4.881   1.466  34.567  1.00  0.00    +0.000 OA
BRANCH   7   9
ATOM      9  OXT ARG A   1       4.892   2.501  36.570  1.00  0.00    +0.000 OA
ATOM     10  HXT ARG A   1       5.601   2.652  37.225  1.00  0.00    +0.000 HD
ENDBRANCH   7   9
ENDBRANCH   3   7
ENDBRANCH   2   3
ENDBRANCH   1   2
BRANCH   1  11
ATOM     11  CD  ARG A   1       9.938   1.758  34.186  1.00  0.00    +0.000 C 
BRANCH  11  12
ATOM     12  NE  ARG A   1      10.305   0.915  33.057  1.00  0.00    +0.000 NA
ATOM     13  CZ  ARG A   1      11.489   0.434  33.014  1.00  0.00    +0.000 C 
ATOM     14  NH1 ARG A   1      12.516   0.582  33.879  1.00  0.00    +0.000 N 
ATOM     15  NH2 ARG A   1      11.862  -0.348  31.980  1.00  0.00    +0.000 N 
ATOM     16 HH11 ARG A   1      12.249   0.911  34.798  1.00  0.00    +0.000 HD
ATOM     17 HH12 ARG A   1      13.076  -0.261  33.950  1.00  0.00    +0.000 HD
ATOM     18 HH21 ARG A   1      11.138  -0.349  31.267  1.00  0.00    +0.000 HD
ATOM     19 HH22 ARG A   1      12.752  -0.074  31.584  1.00  0.00    +0.000 HD
ENDBRANCH  11  12
ENDBRANCH   1  11
TORSDOF 7
ENDMDL
MODEL 8
REMARK VINA RESULT:    -5.281      6.247      8.597
REMARK INTER + INTRA:          -7.312
REMARK INTER:                  -6.929
REMARK INTRA:                  -0.383
REMARK UNBOUND:                -0.178
REMARK  Name = 
REMARK  7 active torsions:
REMARK  status: ('A' for Active; 'I' for Inactive)
REMARK    1  A    between atoms: CG_1  and  CB_2
REMARK    2  A    between atoms: CG_1  and  CD_8
REMARK    3  A    between atoms: CB_2  and  CA_3
REMARK    4  A    between atoms: CA_3  and  C_4
REMARK    5  A    between atoms: CA_3  and  N_7
REMARK    6  A    between atoms: C_4  and  OXT_6
REMARK    7  A    between atoms: CD_8  and  NE_9
REMARK                            x       y       z     vdW  Elec       q    Type
REMARK                         _______ _______ _______ _____ _____    ______ ____
ROOT
ATOM      1  CG  ARG A   1      11.171  -0.943  31.858  1.00  0.00    +0.000 C 
ENDROOT
BRANCH   1   2
ATOM      2  CB  ARG A   1      10.714  -0.306  33.174  1.00  0.00    +0.000 C 
BRANCH   2   3
ATOM      3  CA  ARG A   1      10.282   1.163  33.071  1.00  0.00    +0.000 C 
BRANCH   3   4
ATOM      4  N   ARG A   1      11.294   1.888  32.266  1.00  0.00    +0.000 NA
ATOM      5  H1  ARG A   1      10.793   2.520  31.634  1.00  0.00    +0.000 HD
ATOM      6  H2  ARG A   1      11.736   1.222  31.627  1.00  0.00    +0.000 HD
ENDBRANCH   3   4
BRANCH   3   7
ATOM      7  C   ARG A   1      10.167   1.823  34.459  1.00  0.00    +0.000 C 
ATOM      8  O   ARG A   1       9.167   2.408  34.856  1.00  0.00    +0.000 OA
BRANCH   7   9
ATOM      9  OXT ARG A   1      11.266   1.679  35.232  1.00  0.00    +0.000 OA
ATOM     10  HXT ARG A   1      12.111   1.630  34.745  1.00  0.00    +0.000 HD
ENDBRANCH   7   9
ENDBRANCH   3   7
ENDBRANCH   2   3
ENDBRANCH   1   2
BRANCH   1  11
ATOM     11  CD  ARG A   1      12.656  -1.307  31.846  1.00  0.00    +0.000 C 
BRANCH  11  12
ATOM     12  NE  ARG A   1      13.389  -0.162  31.324  1.00  0.00    +0.000 NA
ATOM     13  CZ  ARG A   1      14.030   0.577  32.147  1.00  0.00    +0.000 C 
ATOM     14  NH1 ARG A   1      14.152   0.479  33.488  1.00  0.00    +0.000 N 
ATOM     15  NH2 ARG A   1      14.717   1.648  31.696  1.00  0.00    +0.000 N 
ATOM     16 HH11 ARG A   1      13.911  -0.428  33.867  1.00  0.00    +0.000 HD
ATOM     17 HH12 ARG A   1      15.071   0.766  33.808  1.00  0.00    +0.000 HD
ATOM     18 HH21 ARG A   1      14.516   1.799  30.712  1.00  0.00    +0.000 HD
ATOM     19 HH22 ARG A   1      14.529   2.486  32.231  1.00  0.00    +0.000 HD
ENDBRANCH  11  12
ENDBRANCH   1  11
TORSDOF 7
ENDMDL
MODEL 9
REMARK VINA RESULT:    -5.257     11.555     12.468
REMARK INTER + INTRA:          -7.280
REMARK INTER:                  -6.623
REMARK INTRA:                  -0.657
REMARK UNBOUND:                -0.178
REMARK  Name = 
REMARK  7 active torsions:
REMARK  status: ('A' for Active; 'I' for Inactive)
REMARK    1  A    between atoms: CG_1  and  CB_2
REMARK    2  A    between atoms: CG_1  and  CD_8
REMARK    3  A    between atoms: CB_2  and  CA_3
REMARK    4  A    between atoms: CA_3  and  C_4
REMARK    5  A    between atoms: CA_3  and  N_7
REMARK    6  A    between atoms: C_4  and  OXT_6
REMARK    7  A    between atoms: CD_8  and  NE_9
REMARK                            x       y       z     vdW  Elec       q    Type
REMARK                         _______ _______ _______ _____ _____    ______ ____
ROOT
ATOM      1  CG  ARG A   1       9.197  -1.640  23.897  1.00  0.00    +0.000 C 
ENDROOT
BRANCH   1   2
ATOM      2  CB  ARG A   1       9.226  -0.424  24.827  1.00  0.00    +0.000 C 
BRANCH   2   3
ATOM      3  CA  ARG A   1       8.588   0.850  24.256  1.00  0.00    +0.000 C 
BRANCH   3   4
ATOM      4  N   ARG A   1       9.353   2.016  24.761  1.00  0.00    +0.000 NA
ATOM      5  H1  ARG A   1       9.748   1.758  25.671  1.00  0.00    +0.000 HD
ATOM      6  H2  ARG A   1       8.689   2.759  24.999  1.00  0.00    +0.000 HD
ENDBRANCH   3   4
BRANCH   3   7
ATOM      7  C   ARG A   1       7.112   0.989  24.676  1.00  0.00    +0.000 C 
ATOM      8  O   ARG A   1       6.288   1.657  24.065  1.00  0.00    +0.000 OA
BRANCH   7   9
ATOM      9  OXT ARG A   1       6.782   0.277  25.778  1.00  0.00    +0.000 OA
ATOM     10  HXT ARG A   1       5.836   0.046  25.852  1.00  0.00    +0.000 HD
ENDBRANCH   7   9
ENDBRANCH   3   7
ENDBRANCH   2   3
ENDBRANCH   1   2
BRANCH   1  11
ATOM     11  CD  ARG A   1       8.694  -2.913  24.580  1.00  0.00    +0.000 C 
BRANCH  11  12
ATOM     12  NE  ARG A   1       7.518  -2.560  25.363  1.00  0.00    +0.000 NA
ATOM     13  CZ  ARG A   1       6.395  -3.085  25.047  1.00  0.00    +0.000 C 
ATOM     14  NH1 ARG A   1       6.092  -3.955  24.059  1.00  0.00    +0.000 N 
ATOM     15  NH2 ARG A   1       5.286  -2.776  25.751  1.00  0.00    +0.000 N 
ATOM     16 HH11 ARG A   1       6.888  -4.444  23.671  1.00  0.00    +0.000 HD
ATOM     17 HH12 ARG A   1       5.372  -4.611  24.340  1.00  0.00    +0.000 HD
ATOM     18 HH21 ARG A   1       5.487  -2.025  26.403  1.00  0.00    +0.000 HD
ATOM     19 HH22 ARG A   1       4.502  -2.534  25.158  1.00  0.00    +0.000 HD
ENDBRANCH  11  12
ENDBRANCH   1  11
TORSDOF 7
ENDMDL
