MODEL 1
REMARK VINA RESULT:    -6.222      0.000      0.000
REMARK INTER + INTRA:          -8.538
REMARK INTER:                  -8.405
REMARK INTRA:                  -0.133
REMARK UNBOUND:                -0.133
REMARK  Name = 
REMARK  7 active torsions:
REMARK  status: ('A' for Active; 'I' for Inactive)
REMARK    1  A    between atoms: CG_1  and  CB_2
REMARK    2  A    between atoms: CG_1  and  CD_8
REMARK    3  A    between atoms: CB_2  and  CA_3
REMARK    4  A    between atoms: CA_3  and  C_4
REMARK    5  A    between atoms: CA_3  and  N_7
REMARK    6  A    between atoms: C_4  and  OXT_6
REMARK    7  A    between atoms: CD_8  and  NE_9
REMARK                            x       y       z     vdW  Elec       q    Type
REMARK                         _______ _______ _______ _____ _____    ______ ____
ROOT
ATOM      1  CG  ARG A   1       6.403   2.811  36.153  1.00  0.00    +0.000 C 
ENDROOT
BRANCH   1   2
ATOM      2  CB  ARG A   1       5.875   3.867  37.128  1.00  0.00    +0.000 C 
BRANCH   2   3
ATOM      3  CA  ARG A   1       4.579   4.565  36.696  1.00  0.00    +0.000 C 
BRANCH   3   4
ATOM      4  N   ARG A   1       4.912   5.954  36.297  1.00  0.00    +0.000 NA
ATOM      5  H1  ARG A   1       5.727   6.248  36.846  1.00  0.00    +0.000 HD
ATOM      6  H2  ARG A   1       4.170   6.574  36.633  1.00  0.00    +0.000 HD
ENDBRANCH   3   4
BRANCH   3   7
ATOM      7  C   ARG A   1       3.540   4.598  37.832  1.00  0.00    +0.000 C 
ATOM      8  O   ARG A   1       2.385   4.207  37.714  1.00  0.00    +0.000 OA
BRANCH   7   9
ATOM      9  OXT ARG A   1       4.018   5.073  39.005  1.00  0.00    +0.000 OA
ATOM     10  HXT ARG A   1       4.937   4.816  39.211  1.00  0.00    +0.000 HD
ENDBRANCH   7   9
ENDBRANCH   3   7
ENDBRANCH   2   3
ENDBRANCH   1   2
BRANCH   1  11
ATOM     11  CD  ARG A   1       7.779   3.152  35.578  1.00  0.00    +0.000 C 
BRANCH  11  12
ATOM     12  NE  ARG A   1       7.850   2.590  34.237  1.00  0.00    +0.000 NA
ATOM     13  CZ  ARG A   1       8.971   2.133  33.826  1.00  0.00    +0.000 C 
ATOM     14  NH1 ARG A   1      10.167   2.081  34.451  1.00  0.00    +0.000 N 
ATOM     15  NH2 ARG A   1       9.071   1.608  32.587  1.00  0.00    +0.000 N 
ATOM     16 HH11 ARG A   1      10.122   2.191  35.455  1.00  0.00    +0.000 HD
ATOM     17 HH12 ARG A   1      10.687   1.245  34.206  1.00  0.00    +0.000 HD
ATOM     18 HH21 ARG A   1       8.211   1.769  32.071  1.00  0.00    +0.000 HD
ATOM     19 HH22 ARG A   1       9.867   1.967  32.074  1.00  0.00    +0.000 HD
ENDBRANCH  11  12
ENDBRANCH   1  11
TORSDOF 7
ENDMDL
MODEL 2
REMARK VINA RESULT:    -6.168      3.814      6.328
REMARK INTER + INTRA:          -8.466
REMARK INTER:                  -8.296
REMARK INTRA:                  -0.170
REMARK UNBOUND:                -0.133
REMARK  Name = 
REMARK  7 active torsions:
REMARK  status: ('A' for Active; 'I' for Inactive)
REMARK    1  A    between atoms: CG_1  and  CB_2
REMARK    2  A    between atoms: CG_1  and  CD_8
REMARK    3  A    between atoms: CB_2  and  CA_3
REMARK    4  A    between atoms: CA_3  and  C_4
REMARK    5  A    between atoms: CA_3  and  N_7
REMARK    6  A    between atoms: C_4  and  OXT_6
REMARK    7  A    between atoms: CD_8  and  NE_9
REMARK                            x       y       z     vdW  Elec       q    Type
REMARK                         _______ _______ _______ _____ _____    ______ ____
ROOT
ATOM      1  CG  ARG A   1       6.219   2.848  36.349  1.00  0.00    +0.000 C 
ENDROOT
BRANCH   1   2
ATOM      2  CB  ARG A   1       7.566   2.937  35.626  1.00  0.00    +0.000 C 
BRANCH   2   3
ATOM      3  CA  ARG A   1       7.504   2.742  34.105  1.00  0.00    +0.000 C 
BRANCH   3   4
ATOM      4  N   ARG A   1       6.434   1.759  33.809  1.00  0.00    +0.000 NA
ATOM      5  H1  ARG A   1       5.857   2.146  33.055  1.00  0.00    +0.000 HD
ATOM      6  H2  ARG A   1       5.790   1.733  34.604  1.00  0.00    +0.000 HD
ENDBRANCH   3   4
BRANCH   3   7
ATOM      7  C   ARG A   1       8.840   2.226  33.540  1.00  0.00    +0.000 C 
ATOM      8  O   ARG A   1       9.928   2.425  34.066  1.00  0.00    +0.000 OA
BRANCH   7   9
ATOM      9  OXT ARG A   1       8.716   1.493  32.410  1.00  0.00    +0.000 OA
ATOM     10  HXT ARG A   1       7.874   1.007  32.323  1.00  0.00    +0.000 HD
ENDBRANCH   7   9
ENDBRANCH   3   7
ENDBRANCH   2   3
ENDBRANCH   1   2
BRANCH   1  11
ATOM     11  CD  ARG A   1       5.569   4.212  36.588  1.00  0.00    +0.000 C 
BRANCH  11  12
ATOM     12  NE  ARG A   1       4.134   4.002  36.713  1.00  0.00    +0.000 NA
ATOM     13  CZ  ARG A   1       3.562   4.335  37.807  1.00  0.00    +0.000 C 
ATOM     14  NH1 ARG A   1       4.085   4.874  38.930  1.00  0.00    +0.000 N 
ATOM     15  NH2 ARG A   1       2.233   4.151  37.956  1.00  0.00    +0.000 N 
ATOM     16 HH11 ARG A   1       4.997   5.296  38.809  1.00  0.00    +0.000 HD
ATOM     17 HH12 ARG A   1       3.446   5.527  39.370  1.00  0.00    +0.000 HD
ATOM     18 HH21 ARG A   1       1.866   3.625  37.169  1.00  0.00    +0.000 HD
ATOM     19 HH22 ARG A   1       1.997   3.697  38.830  1.00  0.00    +0.000 HD
ENDBRANCH  11  12
ENDBRANCH   1  11
TORSDOF 7
ENDMDL
MODEL 3
REMARK VINA RESULT:    -6.129      2.454      3.410
REMARK INTER + INTRA:          -8.413
REMARK INTER:                  -7.907
REMARK INTRA:                  -0.505
REMARK UNBOUND:                -0.133
REMARK  Name = 
REMARK  7 active torsions:
REMARK  status: ('A' for Active; 'I' for Inactive)
REMARK    1  A    between atoms: CG_1  and  CB_2
REMARK    2  A    between atoms: CG_1  and  CD_8
REMARK    3  A    between atoms: CB_2  and  CA_3
REMARK    4  A    between atoms: CA_3  and  C_4
REMARK    5  A    between atoms: CA_3  and  N_7
REMARK    6  A    between atoms: C_4  and  OXT_6
REMARK    7  A    between atoms: CD_8  and  NE_9
REMARK                            x       y       z     vdW  Elec       q    Type
REMARK                         _______ _______ _______ _____ _____    ______ ____
ROOT
ATOM      1  CG  ARG A   1       6.453   2.751  36.132  1.00  0.00    +0.000 C 
ENDROOT
BRANCH   1   2
ATOM      2  CB  ARG A   1       6.062   3.780  37.196  1.00  0.00    +0.000 C 
BRANCH   2   3
ATOM      3  CA  ARG A   1       4.890   4.696  36.818  1.00  0.00    +0.000 C 
BRANCH   3   4
ATOM      4  N   ARG A   1       5.409   6.079  36.687  1.00  0.00    +0.000 NA
ATOM      5  H1  ARG A   1       5.963   6.284  37.524  1.00  0.00    +0.000 HD
ATOM      6  H2  ARG A   1       4.621   6.728  36.766  1.00  0.00    +0.000 HD
ENDBRANCH   3   4
BRANCH   3   7
ATOM      7  C   ARG A   1       3.776   4.669  37.881  1.00  0.00    +0.000 C 
ATOM      8  O   ARG A   1       2.651   4.231  37.681  1.00  0.00    +0.000 OA
BRANCH   7   9
ATOM      9  OXT ARG A   1       4.153   5.148  39.088  1.00  0.00    +0.000 OA
ATOM     10  HXT ARG A   1       3.493   5.042  39.800  1.00  0.00    +0.000 HD
ENDBRANCH   7   9
ENDBRANCH   3   7
ENDBRANCH   2   3
ENDBRANCH   1   2
BRANCH   1  11
ATOM     11  CD  ARG A   1       5.575   2.809  34.881  1.00  0.00    +0.000 C 
BRANCH  11  12
ATOM     12  NE  ARG A   1       5.016   1.481  34.671  1.00  0.00    +0.000 NA
ATOM     13  CZ  ARG A   1       3.826   1.249  35.078  1.00  0.00    +0.000 C 
ATOM     14  NH1 ARG A   1       2.951   2.063  35.706  1.00  0.00    +0.000 N 
ATOM     15  NH2 ARG A   1       3.280   0.028  34.901  1.00  0.00    +0.000 N 
ATOM     16 HH11 ARG A   1       3.164   3.050  35.630  1.00  0.00    +0.000 HD
ATOM     17 HH12 ARG A   1       1.994   1.883  35.423  1.00  0.00    +0.000 HD
ATOM     18 HH21 ARG A   1       3.981  -0.618  34.553  1.00  0.00    +0.000 HD
ATOM     19 HH22 ARG A   1       2.849  -0.333  35.743  1.00  0.00    +0.000 HD
ENDBRANCH  11  12
ENDBRANCH   1  11
TORSDOF 7
ENDMDL
MODEL 4
REMARK VINA RESULT:    -6.023      1.759      2.146
REMARK INTER + INTRA:          -8.268
REMARK INTER:                  -8.088
REMARK INTRA:                  -0.181
REMARK UNBOUND:                -0.133
REMARK  Name = 
REMARK  7 active torsions:
REMARK  status: ('A' for Active; 'I' for Inactive)
REMARK    1  A    between atoms: CG_1  and  CB_2
REMARK    2  A    between atoms: CG_1  and  CD_8
REMARK    3  A    between atoms: CB_2  and  CA_3
REMARK    4  A    between atoms: CA_3  and  C_4
REMARK    5  A    between atoms: CA_3  and  N_7
REMARK    6  A    between atoms: C_4  and  OXT_6
REMARK    7  A    between atoms: CD_8  and  NE_9
REMARK                            x       y       z     vdW  Elec       q    Type
REMARK                         _______ _______ _______ _____ _____    ______ ____
ROOT
ATOM      1  CG  ARG A   1       7.192   3.055  36.222  1.00  0.00    +0.000 C 
ENDROOT
BRANCH   1   2
ATOM      2  CB  ARG A   1       5.721   3.302  36.568  1.00  0.00    +0.000 C 
BRANCH   2   3
ATOM      3  CA  ARG A   1       5.438   4.611  37.316  1.00  0.00    +0.000 C 
BRANCH   3   4
ATOM      4  N   ARG A   1       4.380   4.349  38.323  1.00  0.00    +0.000 NA
ATOM      5  H1  ARG A   1       4.832   3.943  39.149  1.00  0.00    +0.000 HD
ATOM      6  H2  ARG A   1       3.792   3.584  37.981  1.00  0.00    +0.000 HD
ENDBRANCH   3   4
BRANCH   3   7
ATOM      7  C   ARG A   1       4.967   5.726  36.362  1.00  0.00    +0.000 C 
ATOM      8  O   ARG A   1       5.722   6.398  35.672  1.00  0.00    +0.000 OA
BRANCH   7   9
ATOM      9  OXT ARG A   1       3.625   5.887  36.321  1.00  0.00    +0.000 OA
ATOM     10  HXT ARG A   1       3.323   6.794  36.122  1.00  0.00    +0.000 HD
ENDBRANCH   7   9
ENDBRANCH   3   7
ENDBRANCH   2   3
ENDBRANCH   1   2
BRANCH   1  11
ATOM     11  CD  ARG A   1       7.429   2.797  34.733  1.00  0.00    +0.000 C 
BRANCH  11  12
ATOM     12  NE  ARG A   1       8.865   2.674  34.528  1.00  0.00    +0.000 NA
ATOM     13  CZ  ARG A   1       9.283   2.174  33.428  1.00  0.00    +0.000 C 
ATOM     14  NH1 ARG A   1       8.588   1.710  32.366  1.00  0.00    +0.000 N 
ATOM     15  NH2 ARG A   1      10.608   2.043  33.208  1.00  0.00    +0.000 N 
ATOM     16 HH11 ARG A   1       7.625   2.019  32.327  1.00  0.00    +0.000 HD
ATOM     17 HH12 ARG A   1       9.060   1.903  31.490  1.00  0.00    +0.000 HD
ATOM     18 HH21 ARG A   1      11.123   2.265  34.054  1.00  0.00    +0.000 HD
ATOM     19 HH22 ARG A   1      10.859   1.124  32.868  1.00  0.00    +0.000 HD
ENDBRANCH  11  12
ENDBRANCH   1  11
TORSDOF 7
ENDMDL
MODEL 5
REMARK VINA RESULT:    -5.989     11.555     12.658
REMARK INTER + INTRA:          -8.223
REMARK INTER:                  -8.009
REMARK INTRA:                  -0.215
REMARK UNBOUND:                -0.133
REMARK  Name = 
REMARK  7 active torsions:
REMARK  status: ('A' for Active; 'I' for Inactive)
REMARK    1  A    between atoms: CG_1  and  CB_2
REMARK    2  A    between atoms: CG_1  and  CD_8
REMARK    3  A    between atoms: CB_2  and  CA_3
REMARK    4  A    between atoms: CA_3  and  C_4
REMARK    5  A    between atoms: CA_3  and  N_7
REMARK    6  A    between atoms: C_4  and  OXT_6
REMARK    7  A    between atoms: CD_8  and  NE_9
REMARK                            x       y       z     vdW  Elec       q    Type
REMARK                         _______ _______ _______ _____ _____    ______ ____
ROOT
ATOM      1  CG  ARG A   1       8.822  12.188  29.279  1.00  0.00    +0.000 C 
ENDROOT
BRANCH   1   2
ATOM      2  CB  ARG A   1       9.060  12.437  27.788  1.00  0.00    +0.000 C 
BRANCH   2   3
ATOM      3  CA  ARG A   1      10.237  11.664  27.177  1.00  0.00    +0.000 C 
BRANCH   3   4
ATOM      4  N   ARG A   1      10.053  10.224  27.483  1.00  0.00    +0.000 NA
ATOM      5  H1  ARG A   1      10.953   9.859  27.810  1.00  0.00    +0.000 HD
ATOM      6  H2  ARG A   1       9.907   9.723  26.602  1.00  0.00    +0.000 HD
ENDBRANCH   3   4
BRANCH   3   7
ATOM      7  C   ARG A   1      11.589  12.136  27.745  1.00  0.00    +0.000 C 
ATOM      8  O   ARG A   1      12.142  13.177  27.415  1.00  0.00    +0.000 OA
BRANCH   7   9
ATOM      9  OXT ARG A   1      12.113  11.312  28.680  1.00  0.00    +0.000 OA
ATOM     10  HXT ARG A   1      11.489  11.019  29.371  1.00  0.00    +0.000 HD
ENDBRANCH   7   9
ENDBRANCH   3   7
ENDBRANCH   2   3
ENDBRANCH   1   2
BRANCH   1  11
ATOM     11  CD  ARG A   1       9.104  13.413  30.151  1.00  0.00    +0.000 C 
BRANCH  11  12
ATOM     12  NE  ARG A   1       8.480  13.187  31.447  1.00  0.00    +0.000 NA
ATOM     13  CZ  ARG A   1       9.193  12.697  32.389  1.00  0.00    +0.000 C 
ATOM     14  NH1 ARG A   1      10.493  12.330  32.391  1.00  0.00    +0.000 N 
ATOM     15  NH2 ARG A   1       8.645  12.473  33.601  1.00  0.00    +0.000 N 
ATOM     16 HH11 ARG A   1      11.040  12.714  31.632  1.00  0.00    +0.000 HD
ATOM     17 HH12 ARG A   1      10.938  12.518  33.283  1.00  0.00    +0.000 HD
ATOM     18 HH21 ARG A   1       7.641  12.622  33.561  1.00  0.00    +0.000 HD
ATOM     19 HH22 ARG A   1       8.854  11.550  33.960  1.00  0.00    +0.000 HD
ENDBRANCH  11  12
ENDBRANCH   1  11
TORSDOF 7
ENDMDL
MODEL 6
REMARK VINA RESULT:    -5.962      4.061      6.411
REMARK INTER + INTRA:          -8.187
REMARK INTER:                  -8.033
REMARK INTRA:                  -0.154
REMARK UNBOUND:                -0.133
REMARK  Name = 
REMARK  7 active torsions:
REMARK  status: ('A' for Active; 'I' for Inactive)
REMARK    1  A    between atoms: CG_1  and  CB_2
REMARK    2  A    between atoms: CG_1  and  CD_8
REMARK    3  A    between atoms: CB_2  and  CA_3
REMARK    4  A    between atoms: CA_3  and  C_4
REMARK    5  A    between atoms: CA_3  and  N_7
REMARK    6  A    between atoms: C_4  and  OXT_6
REMARK    7  A    between atoms: CD_8  and  NE_9
REMARK                            x       y       z     vdW  Elec       q    Type
REMARK                         _______ _______ _______ _____ _____    ______ ____
ROOT
ATOM      1  CG  ARG A   1       7.218   2.335  34.539  1.00  0.00    +0.000 C 
ENDROOT
BRANCH   1   2
ATOM      2  CB  ARG A   1       8.691   2.708  34.728  1.00  0.00    +0.000 C 
BRANCH   2   3
ATOM      3  CA  ARG A   1       9.644   2.162  33.656  1.00  0.00    +0.000 C 
BRANCH   3   4
ATOM      4  N   ARG A   1       8.829   1.533  32.589  1.00  0.00    +0.000 NA
ATOM      5  H1  ARG A   1       8.474   0.643  32.954  1.00  0.00    +0.000 HD
ATOM      6  H2  ARG A   1       9.456   1.241  31.834  1.00  0.00    +0.000 HD
ENDBRANCH   3   4
BRANCH   3   7
ATOM      7  C   ARG A   1      10.618   1.118  34.235  1.00  0.00    +0.000 C 
ATOM      8  O   ARG A   1      10.756  -0.011  33.783  1.00  0.00    +0.000 OA
BRANCH   7   9
ATOM      9  OXT ARG A   1      11.347   1.563  35.283  1.00  0.00    +0.000 OA
ATOM     10  HXT ARG A   1      12.305   1.383  35.227  1.00  0.00    +0.000 HD
ENDBRANCH   7   9
ENDBRANCH   3   7
ENDBRANCH   2   3
ENDBRANCH   1   2
BRANCH   1  11
ATOM     11  CD  ARG A   1       6.340   2.708  35.735  1.00  0.00    +0.000 C 
BRANCH  11  12
ATOM     12  NE  ARG A   1       5.991   4.116  35.605  1.00  0.00    +0.000 NA
ATOM     13  CZ  ARG A   1       5.522   4.724  36.627  1.00  0.00    +0.000 C 
ATOM     14  NH1 ARG A   1       5.278   4.265  37.874  1.00  0.00    +0.000 N 
ATOM     15  NH2 ARG A   1       5.186   6.028  36.539  1.00  0.00    +0.000 N 
ATOM     16 HH11 ARG A   1       5.750   3.399  38.103  1.00  0.00    +0.000 HD
ATOM     17 HH12 ARG A   1       5.462   4.969  38.580  1.00  0.00    +0.000 HD
ATOM     18 HH21 ARG A   1       5.242   6.336  35.573  1.00  0.00    +0.000 HD
ATOM     19 HH22 ARG A   1       4.270   6.222  36.923  1.00  0.00    +0.000 HD
ENDBRANCH  11  12
ENDBRANCH   1  11
TORSDOF 7
ENDMDL
MODEL 7
REMARK VINA RESULT:    -5.816      2.959      5.719
REMARK INTER + INTRA:          -7.989
REMARK INTER:                  -7.816
REMARK INTRA:                  -0.173
REMARK UNBOUND:                -0.133
REMARK  Name = 
REMARK  7 active torsions:
REMARK  status: ('A' for Active; 'I' for Inactive)
REMARK    1  A    between atoms: CG_1  and  CB_2
REMARK    2  A    between atoms: CG_1  and  CD_8
REMARK    3  A    between atoms: CB_2  and  CA_3
REMARK    4  A    between atoms: CA_3  and  C_4
REMARK    5  A    between atoms: CA_3  and  N_7
REMARK    6  A    between atoms: C_4  and  OXT_6
REMARK    7  A    between atoms: CD_8  and  NE_9
REMARK                            x       y       z     vdW  Elec       q    Type
REMARK                         _______ _______ _______ _____ _____    ______ ____
ROOT
ATOM      1  CG  ARG A   1       6.325   3.424  36.513  1.00  0.00    +0.000 C 
ENDROOT
BRANCH   1   2
ATOM      2  CB  ARG A   1       7.476   3.386  35.505  1.00  0.00    +0.000 C 
BRANCH   2   3
ATOM      3  CA  ARG A   1       7.484   2.171  34.568  1.00  0.00    +0.000 C 
BRANCH   3   4
ATOM      4  N   ARG A   1       8.613   2.325  33.619  1.00  0.00    +0.000 NA
ATOM      5  H1  ARG A   1       9.029   1.399  33.478  1.00  0.00    +0.000 HD
ATOM      6  H2  ARG A   1       9.360   2.846  34.087  1.00  0.00    +0.000 HD
ENDBRANCH   3   4
BRANCH   3   7
ATOM      7  C   ARG A   1       6.167   2.050  33.777  1.00  0.00    +0.000 C 
ATOM      8  O   ARG A   1       5.943   2.643  32.729  1.00  0.00    +0.000 OA
BRANCH   7   9
ATOM      9  OXT ARG A   1       5.271   1.197  34.323  1.00  0.00    +0.000 OA
ATOM     10  HXT ARG A   1       5.436   0.966  35.257  1.00  0.00    +0.000 HD
ENDBRANCH   7   9
ENDBRANCH   3   7
ENDBRANCH   2   3
ENDBRANCH   1   2
BRANCH   1  11
ATOM     11  CD  ARG A   1       5.507   4.716  36.450  1.00  0.00    +0.000 C 
BRANCH  11  12
ATOM     12  NE  ARG A   1       4.100   4.355  36.550  1.00  0.00    +0.000 NA
ATOM     13  CZ  ARG A   1       3.535   4.417  37.695  1.00  0.00    +0.000 C 
ATOM     14  NH1 ARG A   1       4.043   4.776  38.894  1.00  0.00    +0.000 N 
ATOM     15  NH2 ARG A   1       2.233   4.086  37.823  1.00  0.00    +0.000 N 
ATOM     16 HH11 ARG A   1       4.910   5.295  38.846  1.00  0.00    +0.000 HD
ATOM     17 HH12 ARG A   1       3.363   5.270  39.462  1.00  0.00    +0.000 HD
ATOM     18 HH21 ARG A   1       1.889   3.690  36.953  1.00  0.00    +0.000 HD
ATOM     19 HH22 ARG A   1       2.065   3.453  38.594  1.00  0.00    +0.000 HD
ENDBRANCH  11  12
ENDBRANCH   1  11
TORSDOF 7
ENDMDL
MODEL 8
REMARK VINA RESULT:    -5.691     12.226     13.451
REMARK INTER + INTRA:          -7.821
REMARK INTER:                  -7.642
REMARK INTRA:                  -0.179
REMARK UNBOUND:                -0.133
REMARK  Name = 
REMARK  7 active torsions:
REMARK  status: ('A' for Active; 'I' for Inactive)
REMARK    1  A    between atoms: CG_1  and  CB_2
REMARK    2  A    between atoms: CG_1  and  CD_8
REMARK    3  A    between atoms: CB_2  and  CA_3
REMARK    4  A    between atoms: CA_3  and  C_4
REMARK    5  A    between atoms: CA_3  and  N_7
REMARK    6  A    between atoms: C_4  and  OXT_6
REMARK    7  A    between atoms: CD_8  and  NE_9
REMARK                            x       y       z     vdW  Elec       q    Type
REMARK                         _______ _______ _______ _____ _____    ______ ____
ROOT
ATOM      1  CG  ARG A   1       8.658  11.867  27.550  1.00  0.00    +0.000 C 
ENDROOT
BRANCH   1   2
ATOM      2  CB  ARG A   1       9.847  12.636  28.132  1.00  0.00    +0.000 C 
BRANCH   2   3
ATOM      3  CA  ARG A   1      11.225  12.188  27.626  1.00  0.00    +0.000 C 
BRANCH   3   4
ATOM      4  N   ARG A   1      11.860  11.365  28.684  1.00  0.00    +0.000 NA
ATOM      5  H1  ARG A   1      12.176  10.491  28.250  1.00  0.00    +0.000 HD
ATOM      6  H2  ARG A   1      11.132  11.052  29.332  1.00  0.00    +0.000 HD
ENDBRANCH   3   4
BRANCH   3   7
ATOM      7  C   ARG A   1      12.133  13.388  27.301  1.00  0.00    +0.000 C 
ATOM      8  O   ARG A   1      12.156  13.953  26.215  1.00  0.00    +0.000 OA
BRANCH   7   9
ATOM      9  OXT ARG A   1      12.898  13.800  28.338  1.00  0.00    +0.000 OA
ATOM     10  HXT ARG A   1      12.432  13.869  29.193  1.00  0.00    +0.000 HD
ENDBRANCH   7   9
ENDBRANCH   3   7
ENDBRANCH   2   3
ENDBRANCH   1   2
BRANCH   1  11
ATOM     11  CD  ARG A   1       7.308  12.337  28.094  1.00  0.00    +0.000 C 
BRANCH  11  12
ATOM     12  NE  ARG A   1       7.533  12.884  29.424  1.00  0.00    +0.000 NA
ATOM     13  CZ  ARG A   1       6.727  12.557  30.362  1.00  0.00    +0.000 C 
ATOM     14  NH1 ARG A   1       5.643  11.752  30.332  1.00  0.00    +0.000 N 
ATOM     15  NH2 ARG A   1       6.906  13.048  31.606  1.00  0.00    +0.000 N 
ATOM     16 HH11 ARG A   1       5.599  11.135  29.531  1.00  0.00    +0.000 HD
ATOM     17 HH12 ARG A   1       5.536  11.227  31.193  1.00  0.00    +0.000 HD
ATOM     18 HH21 ARG A   1       7.636  13.754  31.598  1.00  0.00    +0.000 HD
ATOM     19 HH22 ARG A   1       6.054  13.421  32.005  1.00  0.00    +0.000 HD
ENDBRANCH  11  12
ENDBRANCH   1  11
TORSDOF 7
ENDMDL
MODEL 9
REMARK VINA RESULT:    -5.536      2.381      2.857
REMARK INTER + INTRA:          -7.611
REMARK INTER:                  -7.178
REMARK INTRA:                  -0.433
REMARK UNBOUND:                -0.133
REMARK  Name = 
REMARK  7 active torsions:
REMARK  status: ('A' for Active; 'I' for Inactive)
REMARK    1  A    between atoms: CG_1  and  CB_2
REMARK    2  A    between atoms: CG_1  and  CD_8
REMARK    3  A    between atoms: CB_2  and  CA_3
REMARK    4  A    between atoms: CA_3  and  C_4
REMARK    5  A    between atoms: CA_3  and  N_7
REMARK    6  A    between atoms: C_4  and  OXT_6
REMARK    7  A    between atoms: CD_8  and  NE_9
REMARK                            x       y       z     vdW  Elec       q    Type
REMARK                         _______ _______ _______ _____ _____    ______ ____
ROOT
ATOM      1  CG  ARG A   1       7.102   2.667  36.302  1.00  0.00    +0.000 C 
ENDROOT
BRANCH   1   2
ATOM      2  CB  ARG A   1       5.649   2.855  35.855  1.00  0.00    +0.000 C 
BRANCH   2   3
ATOM      3  CA  ARG A   1       4.962   1.591  35.322  1.00  0.00    +0.000 C 
BRANCH   3   4
ATOM      4  N   ARG A   1       5.213   1.508  33.863  1.00  0.00    +0.000 NA
ATOM      5  H1  ARG A   1       4.781   0.643  33.522  1.00  0.00    +0.000 HD
ATOM      6  H2  ARG A   1       6.212   1.341  33.716  1.00  0.00    +0.000 HD
ENDBRANCH   3   4
BRANCH   3   7
ATOM      7  C   ARG A   1       3.443   1.615  35.576  1.00  0.00    +0.000 C 
ATOM      8  O   ARG A   1       2.855   2.545  36.114  1.00  0.00    +0.000 OA
BRANCH   7   9
ATOM      9  OXT ARG A   1       2.789   0.522  35.122  1.00  0.00    +0.000 OA
ATOM     10  HXT ARG A   1       2.852  -0.265  35.697  1.00  0.00    +0.000 HD
ENDBRANCH   7   9
ENDBRANCH   3   7
ENDBRANCH   2   3
ENDBRANCH   1   2
BRANCH   1  11
ATOM     11  CD  ARG A   1       8.117   3.281  35.336  1.00  0.00    +0.000 C 
BRANCH  11  12
ATOM     12  NE  ARG A   1       8.212   2.404  34.178  1.00  0.00    +0.000 NA
ATOM     13  CZ  ARG A   1       9.349   1.893  33.892  1.00  0.00    +0.000 C 
ATOM     14  NH1 ARG A   1      10.542   2.034  34.508  1.00  0.00    +0.000 N 
ATOM     15  NH2 ARG A   1       9.471   1.078  32.823  1.00  0.00    +0.000 N 
ATOM     16 HH11 ARG A   1      10.488   2.390  35.454  1.00  0.00    +0.000 HD
ATOM     17 HH12 ARG A   1      11.087   1.179  34.479  1.00  0.00    +0.000 HD
ATOM     18 HH21 ARG A   1       8.610   1.079  32.286  1.00  0.00    +0.000 HD
ATOM     19 HH22 ARG A   1      10.259   1.320  32.236  1.00  0.00    +0.000 HD
ENDBRANCH  11  12
ENDBRANCH   1  11
TORSDOF 7
ENDMDL
