MODEL 1
REMARK VINA RESULT:    -6.257      0.000      0.000
REMARK INTER + INTRA:          -8.647
REMARK INTER:                  -8.452
REMARK INTRA:                  -0.195
REMARK UNBOUND:                -0.195
REMARK  Name = 
REMARK  7 active torsions:
REMARK  status: ('A' for Active; 'I' for Inactive)
REMARK    1  A    between atoms: CG_1  and  CB_2
REMARK    2  A    between atoms: CG_1  and  CD_8
REMARK    3  A    between atoms: CB_2  and  CA_3
REMARK    4  A    between atoms: CA_3  and  C_4
REMARK    5  A    between atoms: CA_3  and  N_7
REMARK    6  A    between atoms: C_4  and  OXT_6
REMARK    7  A    between atoms: CD_8  and  NE_9
REMARK                            x       y       z     vdW  Elec       q    Type
REMARK                         _______ _______ _______ _____ _____    ______ ____
ROOT
ATOM      1  CG  ARG A   1       6.400   2.929  36.557  1.00  0.00    +0.000 C 
ENDROOT
BRANCH   1   2
ATOM      2  CB  ARG A   1       7.650   2.922  35.673  1.00  0.00    +0.000 C 
BRANCH   2   3
ATOM      3  CA  ARG A   1       7.391   2.679  34.180  1.00  0.00    +0.000 C 
BRANCH   3   4
ATOM      4  N   ARG A   1       6.356   1.624  34.056  1.00  0.00    +0.000 NA
ATOM      5  H1  ARG A   1       6.461   1.194  33.131  1.00  0.00    +0.000 HD
ATOM      6  H2  ARG A   1       5.439   2.075  33.999  1.00  0.00    +0.000 HD
ENDBRANCH   3   4
BRANCH   3   7
ATOM      7  C   ARG A   1       8.667   2.229  33.444  1.00  0.00    +0.000 C 
ATOM      8  O   ARG A   1       9.801   2.400  33.875  1.00  0.00    +0.000 OA
BRANCH   7   9
ATOM      9  OXT ARG A   1       8.435   1.589  32.275  1.00  0.00    +0.000 OA
ATOM     10  HXT ARG A   1       7.579   1.122  32.223  1.00  0.00    +0.000 HD
ENDBRANCH   7   9
ENDBRANCH   3   7
ENDBRANCH   2   3
ENDBRANCH   1   2
BRANCH   1  11
ATOM     11  CD  ARG A   1       5.691   4.284  36.594  1.00  0.00    +0.000 C 
BRANCH  11  12
ATOM     12  NE  ARG A   1       4.258   4.032  36.655  1.00  0.00    +0.000 NA
ATOM     13  CZ  ARG A   1       3.635   4.313  37.736  1.00  0.00    +0.000 C 
ATOM     14  NH1 ARG A   1       4.100   4.827  38.895  1.00  0.00    +0.000 N 
ATOM     15  NH2 ARG A   1       2.308   4.089  37.826  1.00  0.00    +0.000 N 
ATOM     16 HH11 ARG A   1       5.004   5.277  38.824  1.00  0.00    +0.000 HD
ATOM     17 HH12 ARG A   1       3.427   5.448  39.331  1.00  0.00    +0.000 HD
ATOM     18 HH21 ARG A   1       1.986   3.580  37.008  1.00  0.00    +0.000 HD
ATOM     19 HH22 ARG A   1       2.051   3.600  38.675  1.00  0.00    +0.000 HD
ENDBRANCH  11  12
ENDBRANCH   1  11
TORSDOF 7
ENDMDL
MODEL 2
REMARK VINA RESULT:    -6.185      3.809      6.245
REMARK INTER + INTRA:          -8.549
REMARK INTER:                  -8.416
REMARK INTRA:                  -0.134
REMARK UNBOUND:                -0.195
REMARK  Name = 
REMARK  7 active torsions:
REMARK  status: ('A' for Active; 'I' for Inactive)
REMARK    1  A    between atoms: CG_1  and  CB_2
REMARK    2  A    between atoms: CG_1  and  CD_8
REMARK    3  A    between atoms: CB_2  and  CA_3
REMARK    4  A    between atoms: CA_3  and  C_4
REMARK    5  A    between atoms: CA_3  and  N_7
REMARK    6  A    between atoms: C_4  and  OXT_6
REMARK    7  A    between atoms: CD_8  and  NE_9
REMARK                            x       y       z     vdW  Elec       q    Type
REMARK                         _______ _______ _______ _____ _____    ______ ____
ROOT
ATOM      1  CG  ARG A   1       6.417   2.809  36.262  1.00  0.00    +0.000 C 
ENDROOT
BRANCH   1   2
ATOM      2  CB  ARG A   1       5.871   3.910  37.175  1.00  0.00    +0.000 C 
BRANCH   2   3
ATOM      3  CA  ARG A   1       4.560   4.555  36.707  1.00  0.00    +0.000 C 
BRANCH   3   4
ATOM      4  N   ARG A   1       4.859   5.936  36.257  1.00  0.00    +0.000 NA
ATOM      5  H1  ARG A   1       5.797   5.931  35.844  1.00  0.00    +0.000 HD
ATOM      6  H2  ARG A   1       4.973   6.528  37.084  1.00  0.00    +0.000 HD
ENDBRANCH   3   4
BRANCH   3   7
ATOM      7  C   ARG A   1       3.512   4.604  37.835  1.00  0.00    +0.000 C 
ATOM      8  O   ARG A   1       2.352   4.231  37.706  1.00  0.00    +0.000 OA
BRANCH   7   9
ATOM      9  OXT ARG A   1       3.987   5.071  39.011  1.00  0.00    +0.000 OA
ATOM     10  HXT ARG A   1       4.760   5.664  38.939  1.00  0.00    +0.000 HD
ENDBRANCH   7   9
ENDBRANCH   3   7
ENDBRANCH   2   3
ENDBRANCH   1   2
BRANCH   1  11
ATOM     11  CD  ARG A   1       7.787   3.141  35.667  1.00  0.00    +0.000 C 
BRANCH  11  12
ATOM     12  NE  ARG A   1       7.807   2.645  34.298  1.00  0.00    +0.000 NA
ATOM     13  CZ  ARG A   1       8.910   2.205  33.824  1.00  0.00    +0.000 C 
ATOM     14  NH1 ARG A   1      10.128   2.117  34.402  1.00  0.00    +0.000 N 
ATOM     15  NH2 ARG A   1       8.963   1.741  32.558  1.00  0.00    +0.000 N 
ATOM     16 HH11 ARG A   1      10.119   2.177  35.413  1.00  0.00    +0.000 HD
ATOM     17 HH12 ARG A   1      10.634   1.292  34.098  1.00  0.00    +0.000 HD
ATOM     18 HH21 ARG A   1       8.086   1.931  32.083  1.00  0.00    +0.000 HD
ATOM     19 HH22 ARG A   1       9.741   2.121  32.035  1.00  0.00    +0.000 HD
ENDBRANCH  11  12
ENDBRANCH   1  11
TORSDOF 7
ENDMDL
MODEL 3
REMARK VINA RESULT:    -6.116     12.041     12.651
REMARK INTER + INTRA:          -8.457
REMARK INTER:                  -8.042
REMARK INTRA:                  -0.415
REMARK UNBOUND:                -0.195
REMARK  Name = 
REMARK  7 active torsions:
REMARK  status: ('A' for Active; 'I' for Inactive)
REMARK    1  A    between atoms: CG_1  and  CB_2
REMARK    2  A    between atoms: CG_1  and  CD_8
REMARK    3  A    between atoms: CB_2  and  CA_3
REMARK    4  A    between atoms: CA_3  and  C_4
REMARK    5  A    between atoms: CA_3  and  N_7
REMARK    6  A    between atoms: C_4  and  OXT_6
REMARK    7  A    between atoms: CD_8  and  NE_9
REMARK                            x       y       z     vdW  Elec       q    Type
REMARK                         _______ _______ _______ _____ _____    ______ ____
ROOT
ATOM      1  CG  ARG A   1       9.335  11.289  28.250  1.00  0.00    +0.000 C 
ENDROOT
BRANCH   1   2
ATOM      2  CB  ARG A   1      10.098  12.160  27.248  1.00  0.00    +0.000 C 
BRANCH   2   3
ATOM      3  CA  ARG A   1      11.621  11.976  27.251  1.00  0.00    +0.000 C 
BRANCH   3   4
ATOM      4  N   ARG A   1      12.006  11.324  28.527  1.00  0.00    +0.000 NA
ATOM      5  H1  ARG A   1      12.158  12.065  29.220  1.00  0.00    +0.000 HD
ATOM      6  H2  ARG A   1      12.938  10.918  28.414  1.00  0.00    +0.000 HD
ENDBRANCH   3   4
BRANCH   3   7
ATOM      7  C   ARG A   1      12.361  13.321  27.124  1.00  0.00    +0.000 C 
ATOM      8  O   ARG A   1      12.454  13.953  26.079  1.00  0.00    +0.000 OA
BRANCH   7   9
ATOM      9  OXT ARG A   1      12.883  13.776  28.285  1.00  0.00    +0.000 OA
ATOM     10  HXT ARG A   1      12.875  14.747  28.390  1.00  0.00    +0.000 HD
ENDBRANCH   7   9
ENDBRANCH   3   7
ENDBRANCH   2   3
ENDBRANCH   1   2
BRANCH   1  11
ATOM     11  CD  ARG A   1       8.695  12.091  29.385  1.00  0.00    +0.000 C 
BRANCH  11  12
ATOM     12  NE  ARG A   1       9.763  12.773  30.102  1.00  0.00    +0.000 NA
ATOM     13  CZ  ARG A   1       9.649  12.925  31.366  1.00  0.00    +0.000 C 
ATOM     14  NH1 ARG A   1       8.655  12.545  32.199  1.00  0.00    +0.000 N 
ATOM     15  NH2 ARG A   1      10.619  13.555  32.060  1.00  0.00    +0.000 N 
ATOM     16 HH11 ARG A   1       8.037  11.838  31.821  1.00  0.00    +0.000 HD
ATOM     17 HH12 ARG A   1       9.008  12.262  33.107  1.00  0.00    +0.000 HD
ATOM     18 HH21 ARG A   1      11.298  13.956  31.420  1.00  0.00    +0.000 HD
ATOM     19 HH22 ARG A   1      10.256  14.263  32.685  1.00  0.00    +0.000 HD
ENDBRANCH  11  12
ENDBRANCH   1  11
TORSDOF 7
ENDMDL
MODEL 4
REMARK VINA RESULT:    -5.958      3.779      5.847
REMARK INTER + INTRA:          -8.243
REMARK INTER:                  -8.067
REMARK INTRA:                  -0.176
REMARK UNBOUND:                -0.195
REMARK  Name = 
REMARK  7 active torsions:
REMARK  status: ('A' for Active; 'I' for Inactive)
REMARK    1  A    between atoms: CG_1  and  CB_2
REMARK    2  A    between atoms: CG_1  and  CD_8
REMARK    3  A    between atoms: CB_2  and  CA_3
REMARK    4  A    between atoms: CA_3  and  C_4
REMARK    5  A    between atoms: CA_3  and  N_7
REMARK    6  A    between atoms: C_4  and  OXT_6
REMARK    7  A    between atoms: CD_8  and  NE_9
REMARK                            x       y       z     vdW  Elec       q    Type
REMARK                         _______ _______ _______ _____ _____    ______ ____
ROOT
ATOM      1  CG  ARG A   1       6.475   3.106  36.616  1.00  0.00    +0.000 C 
ENDROOT
BRANCH   1   2
ATOM      2  CB  ARG A   1       5.819   4.371  37.178  1.00  0.00    +0.000 C 
BRANCH   2   3
ATOM      3  CA  ARG A   1       4.390   4.638  36.686  1.00  0.00    +0.000 C 
BRANCH   3   4
ATOM      4  N   ARG A   1       4.320   6.041  36.210  1.00  0.00    +0.000 NA
ATOM      5  H1  ARG A   1       5.268   6.327  35.946  1.00  0.00    +0.000 HD
ATOM      6  H2  ARG A   1       4.111   6.644  37.011  1.00  0.00    +0.000 HD
ENDBRANCH   3   4
BRANCH   3   7
ATOM      7  C   ARG A   1       3.351   4.428  37.803  1.00  0.00    +0.000 C 
ATOM      8  O   ARG A   1       2.142   4.385  37.612  1.00  0.00    +0.000 OA
BRANCH   7   9
ATOM      9  OXT ARG A   1       3.888   4.259  39.032  1.00  0.00    +0.000 OA
ATOM     10  HXT ARG A   1       4.861   4.324  39.071  1.00  0.00    +0.000 HD
ENDBRANCH   7   9
ENDBRANCH   3   7
ENDBRANCH   2   3
ENDBRANCH   1   2
BRANCH   1  11
ATOM     11  CD  ARG A   1       6.971   3.270  35.178  1.00  0.00    +0.000 C 
BRANCH  11  12
ATOM     12  NE  ARG A   1       5.984   2.662  34.297  1.00  0.00    +0.000 NA
ATOM     13  CZ  ARG A   1       6.385   2.135  33.204  1.00  0.00    +0.000 C 
ATOM     14  NH1 ARG A   1       7.632   2.040  32.693  1.00  0.00    +0.000 N 
ATOM     15  NH2 ARG A   1       5.495   1.566  32.364  1.00  0.00    +0.000 N 
ATOM     16 HH11 ARG A   1       8.374   2.184  33.366  1.00  0.00    +0.000 HD
ATOM     17 HH12 ARG A   1       7.771   1.171  32.190  1.00  0.00    +0.000 HD
ATOM     18 HH21 ARG A   1       4.549   1.755  32.681  1.00  0.00    +0.000 HD
ATOM     19 HH22 ARG A   1       5.617   1.866  31.405  1.00  0.00    +0.000 HD
ENDBRANCH  11  12
ENDBRANCH   1  11
TORSDOF 7
ENDMDL
MODEL 5
REMARK VINA RESULT:    -5.957      2.015      2.642
REMARK INTER + INTRA:          -8.242
REMARK INTER:                  -8.072
REMARK INTRA:                  -0.171
REMARK UNBOUND:                -0.195
REMARK  Name = 
REMARK  7 active torsions:
REMARK  status: ('A' for Active; 'I' for Inactive)
REMARK    1  A    between atoms: CG_1  and  CB_2
REMARK    2  A    between atoms: CG_1  and  CD_8
REMARK    3  A    between atoms: CB_2  and  CA_3
REMARK    4  A    between atoms: CA_3  and  C_4
REMARK    5  A    between atoms: CA_3  and  N_7
REMARK    6  A    between atoms: C_4  and  OXT_6
REMARK    7  A    between atoms: CD_8  and  NE_9
REMARK                            x       y       z     vdW  Elec       q    Type
REMARK                         _______ _______ _______ _____ _____    ______ ____
ROOT
ATOM      1  CG  ARG A   1       7.165   2.300  34.383  1.00  0.00    +0.000 C 
ENDROOT
BRANCH   1   2
ATOM      2  CB  ARG A   1       8.614   2.673  34.709  1.00  0.00    +0.000 C 
BRANCH   2   3
ATOM      3  CA  ARG A   1       9.661   2.154  33.715  1.00  0.00    +0.000 C 
BRANCH   3   4
ATOM      4  N   ARG A   1       8.946   1.556  32.561  1.00  0.00    +0.000 NA
ATOM      5  H1  ARG A   1       9.174   0.557  32.539  1.00  0.00    +0.000 HD
ATOM      6  H2  ARG A   1       9.372   1.910  31.699  1.00  0.00    +0.000 HD
ENDBRANCH   3   4
BRANCH   3   7
ATOM      7  C   ARG A   1      10.578   1.092  34.351  1.00  0.00    +0.000 C 
ATOM      8  O   ARG A   1      10.541  -0.099  34.069  1.00  0.00    +0.000 OA
BRANCH   7   9
ATOM      9  OXT ARG A   1      11.466   1.590  35.240  1.00  0.00    +0.000 OA
ATOM     10  HXT ARG A   1      11.334   1.301  36.163  1.00  0.00    +0.000 HD
ENDBRANCH   7   9
ENDBRANCH   3   7
ENDBRANCH   2   3
ENDBRANCH   1   2
BRANCH   1  11
ATOM     11  CD  ARG A   1       6.188   2.620  35.516  1.00  0.00    +0.000 C 
BRANCH  11  12
ATOM     12  NE  ARG A   1       5.942   4.055  35.495  1.00  0.00    +0.000 NA
ATOM     13  CZ  ARG A   1       5.569   4.625  36.578  1.00  0.00    +0.000 C 
ATOM     14  NH1 ARG A   1       5.348   4.100  37.802  1.00  0.00    +0.000 N 
ATOM     15  NH2 ARG A   1       5.329   5.953  36.592  1.00  0.00    +0.000 N 
ATOM     16 HH11 ARG A   1       5.762   3.188  37.950  1.00  0.00    +0.000 HD
ATOM     17 HH12 ARG A   1       5.617   4.738  38.543  1.00  0.00    +0.000 HD
ATOM     18 HH21 ARG A   1       5.364   6.321  35.646  1.00  0.00    +0.000 HD
ATOM     19 HH22 ARG A   1       4.449   6.186  37.033  1.00  0.00    +0.000 HD
ENDBRANCH  11  12
ENDBRANCH   1  11
TORSDOF 7
ENDMDL
MODEL 6
REMARK VINA RESULT:    -5.939      3.236      6.061
REMARK INTER + INTRA:          -8.217
REMARK INTER:                  -8.023
REMARK INTRA:                  -0.194
REMARK UNBOUND:                -0.195
REMARK  Name = 
REMARK  7 active torsions:
REMARK  status: ('A' for Active; 'I' for Inactive)
REMARK    1  A    between atoms: CG_1  and  CB_2
REMARK    2  A    between atoms: CG_1  and  CD_8
REMARK    3  A    between atoms: CB_2  and  CA_3
REMARK    4  A    between atoms: CA_3  and  C_4
REMARK    5  A    between atoms: CA_3  and  N_7
REMARK    6  A    between atoms: C_4  and  OXT_6
REMARK    7  A    between atoms: CD_8  and  NE_9
REMARK                            x       y       z     vdW  Elec       q    Type
REMARK                         _______ _______ _______ _____ _____    ______ ____
ROOT
ATOM      1  CG  ARG A   1       7.442   2.980  36.179  1.00  0.00    +0.000 C 
ENDROOT
BRANCH   1   2
ATOM      2  CB  ARG A   1       5.977   3.129  36.598  1.00  0.00    +0.000 C 
BRANCH   2   3
ATOM      3  CA  ARG A   1       5.620   4.469  37.257  1.00  0.00    +0.000 C 
BRANCH   3   4
ATOM      4  N   ARG A   1       4.636   4.206  38.336  1.00  0.00    +0.000 NA
ATOM      5  H1  ARG A   1       4.269   5.110  38.648  1.00  0.00    +0.000 HD
ATOM      6  H2  ARG A   1       5.143   3.865  39.158  1.00  0.00    +0.000 HD
ENDBRANCH   3   4
BRANCH   3   7
ATOM      7  C   ARG A   1       5.013   5.460  36.247  1.00  0.00    +0.000 C 
ATOM      8  O   ARG A   1       3.810   5.641  36.105  1.00  0.00    +0.000 OA
BRANCH   7   9
ATOM      9  OXT ARG A   1       5.930   6.154  35.535  1.00  0.00    +0.000 OA
ATOM     10  HXT ARG A   1       6.139   7.042  35.883  1.00  0.00    +0.000 HD
ENDBRANCH   7   9
ENDBRANCH   3   7
ENDBRANCH   2   3
ENDBRANCH   1   2
BRANCH   1  11
ATOM     11  CD  ARG A   1       7.619   2.710  34.684  1.00  0.00    +0.000 C 
BRANCH  11  12
ATOM     12  NE  ARG A   1       9.048   2.617  34.418  1.00  0.00    +0.000 NA
ATOM     13  CZ  ARG A   1       9.429   2.144  33.293  1.00  0.00    +0.000 C 
ATOM     14  NH1 ARG A   1       8.698   1.687  32.252  1.00  0.00    +0.000 N 
ATOM     15  NH2 ARG A   1      10.745   2.042  33.016  1.00  0.00    +0.000 N 
ATOM     16 HH11 ARG A   1       7.729   1.979  32.258  1.00  0.00    +0.000 HD
ATOM     17 HH12 ARG A   1       9.131   1.904  31.361  1.00  0.00    +0.000 HD
ATOM     18 HH21 ARG A   1      11.291   2.258  33.844  1.00  0.00    +0.000 HD
ATOM     19 HH22 ARG A   1      10.998   1.133  32.649  1.00  0.00    +0.000 HD
ENDBRANCH  11  12
ENDBRANCH   1  11
TORSDOF 7
ENDMDL
MODEL 7
REMARK VINA RESULT:    -5.880     11.467     11.905
REMARK INTER + INTRA:          -8.138
REMARK INTER:                  -7.918
REMARK INTRA:                  -0.220
REMARK UNBOUND:                -0.195
REMARK  Name = 
REMARK  7 active torsions:
REMARK  status: ('A' for Active; 'I' for Inactive)
REMARK    1  A    between atoms: CG_1  and  CB_2
REMARK    2  A    between atoms: CG_1  and  CD_8
REMARK    3  A    between atoms: CB_2  and  CA_3
REMARK    4  A    between atoms: CA_3  and  C_4
REMARK    5  A    between atoms: CA_3  and  N_7
REMARK    6  A    between atoms: C_4  and  OXT_6
REMARK    7  A    between atoms: CD_8  and  NE_9
REMARK                            x       y       z     vdW  Elec       q    Type
REMARK                         _______ _______ _______ _____ _____    ______ ____
ROOT
ATOM      1  CG  ARG A   1       8.169  12.509  29.719  1.00  0.00    +0.000 C 
ENDROOT
BRANCH   1   2
ATOM      2  CB  ARG A   1       9.327  11.918  28.911  1.00  0.00    +0.000 C 
BRANCH   2   3
ATOM      3  CA  ARG A   1      10.222  12.946  28.206  1.00  0.00    +0.000 C 
BRANCH   3   4
ATOM      4  N   ARG A   1       9.470  13.502  27.055  1.00  0.00    +0.000 NA
ATOM      5  H1  ARG A   1      10.050  14.233  26.630  1.00  0.00    +0.000 HD
ATOM      6  H2  ARG A   1       8.667  14.024  27.416  1.00  0.00    +0.000 HD
ENDBRANCH   3   4
BRANCH   3   7
ATOM      7  C   ARG A   1      11.532  12.312  27.700  1.00  0.00    +0.000 C 
ATOM      8  O   ARG A   1      12.019  12.539  26.600  1.00  0.00    +0.000 OA
BRANCH   7   9
ATOM      9  OXT ARG A   1      12.131  11.493  28.593  1.00  0.00    +0.000 OA
ATOM     10  HXT ARG A   1      11.654  10.661  28.777  1.00  0.00    +0.000 HD
ENDBRANCH   7   9
ENDBRANCH   3   7
ENDBRANCH   2   3
ENDBRANCH   1   2
BRANCH   1  11
ATOM     11  CD  ARG A   1       8.583  13.693  30.594  1.00  0.00    +0.000 C 
BRANCH  11  12
ATOM     12  NE  ARG A   1       8.247  13.364  31.972  1.00  0.00    +0.000 NA
ATOM     13  CZ  ARG A   1       9.127  12.778  32.691  1.00  0.00    +0.000 C 
ATOM     14  NH1 ARG A   1      10.381  12.386  32.377  1.00  0.00    +0.000 N 
ATOM     15  NH2 ARG A   1       8.846  12.456  33.971  1.00  0.00    +0.000 N 
ATOM     16 HH11 ARG A   1      10.765  12.826  31.551  1.00  0.00    +0.000 HD
ATOM     17 HH12 ARG A   1      11.016  12.485  33.162  1.00  0.00    +0.000 HD
ATOM     18 HH21 ARG A   1       7.864  12.628  34.164  1.00  0.00    +0.000 HD
ATOM     19 HH22 ARG A   1       9.092  11.501  34.197  1.00  0.00    +0.000 HD
ENDBRANCH  11  12
ENDBRANCH   1  11
TORSDOF 7
ENDMDL
MODEL 8
REMARK VINA RESULT:    -5.827      2.350      2.987
REMARK INTER + INTRA:          -8.066
REMARK INTER:                  -7.937
REMARK INTRA:                  -0.129
REMARK UNBOUND:                -0.195
REMARK  Name = 
REMARK  7 active torsions:
REMARK  status: ('A' for Active; 'I' for Inactive)
REMARK    1  A    between atoms: CG_1  and  CB_2
REMARK    2  A    between atoms: CG_1  and  CD_8
REMARK    3  A    between atoms: CB_2  and  CA_3
REMARK    4  A    between atoms: CA_3  and  C_4
REMARK    5  A    between atoms: CA_3  and  N_7
REMARK    6  A    between atoms: C_4  and  OXT_6
REMARK    7  A    between atoms: CD_8  and  NE_9
REMARK                            x       y       z     vdW  Elec       q    Type
REMARK                         _______ _______ _______ _____ _____    ______ ____
ROOT
ATOM      1  CG  ARG A   1       8.517   2.757  35.374  1.00  0.00    +0.000 C 
ENDROOT
BRANCH   1   2
ATOM      2  CB  ARG A   1       9.217   2.326  34.082  1.00  0.00    +0.000 C 
BRANCH   2   3
ATOM      3  CA  ARG A   1      10.253   1.206  34.243  1.00  0.00    +0.000 C 
BRANCH   3   4
ATOM      4  N   ARG A   1      11.217   1.616  35.293  1.00  0.00    +0.000 NA
ATOM      5  H1  ARG A   1      12.143   1.679  34.857  1.00  0.00    +0.000 HD
ATOM      6  H2  ARG A   1      11.324   0.841  35.953  1.00  0.00    +0.000 HD
ENDBRANCH   3   4
BRANCH   3   7
ATOM      7  C   ARG A   1      11.014   0.938  32.930  1.00  0.00    +0.000 C 
ATOM      8  O   ARG A   1      11.305  -0.181  32.526  1.00  0.00    +0.000 OA
BRANCH   7   9
ATOM      9  OXT ARG A   1      11.316   2.054  32.229  1.00  0.00    +0.000 OA
ATOM     10  HXT ARG A   1      12.040   2.593  32.600  1.00  0.00    +0.000 HD
ENDBRANCH   7   9
ENDBRANCH   3   7
ENDBRANCH   2   3
ENDBRANCH   1   2
BRANCH   1  11
ATOM     11  CD  ARG A   1       7.066   3.192  35.161  1.00  0.00    +0.000 C 
BRANCH  11  12
ATOM     12  NE  ARG A   1       6.405   3.175  36.458  1.00  0.00    +0.000 NA
ATOM     13  CZ  ARG A   1       5.746   4.210  36.820  1.00  0.00    +0.000 C 
ATOM     14  NH1 ARG A   1       5.549   5.381  36.176  1.00  0.00    +0.000 N 
ATOM     15  NH2 ARG A   1       5.124   4.228  38.017  1.00  0.00    +0.000 N 
ATOM     16 HH11 ARG A   1       5.737   5.352  35.182  1.00  0.00    +0.000 HD
ATOM     17 HH12 ARG A   1       4.625   5.761  36.353  1.00  0.00    +0.000 HD
ATOM     18 HH21 ARG A   1       5.382   3.406  38.554  1.00  0.00    +0.000 HD
ATOM     19 HH22 ARG A   1       5.313   5.072  38.543  1.00  0.00    +0.000 HD
ENDBRANCH  11  12
ENDBRANCH   1  11
TORSDOF 7
ENDMDL
MODEL 9
REMARK VINA RESULT:    -5.794      1.547      2.183
REMARK INTER + INTRA:          -8.021
REMARK INTER:                  -7.536
REMARK INTRA:                  -0.485
REMARK UNBOUND:                -0.195
REMARK  Name = 
REMARK  7 active torsions:
REMARK  status: ('A' for Active; 'I' for Inactive)
REMARK    1  A    between atoms: CG_1  and  CB_2
REMARK    2  A    between atoms: CG_1  and  CD_8
REMARK    3  A    between atoms: CB_2  and  CA_3
REMARK    4  A    between atoms: CA_3  and  C_4
REMARK    5  A    between atoms: CA_3  and  N_7
REMARK    6  A    between atoms: C_4  and  OXT_6
REMARK    7  A    between atoms: CD_8  and  NE_9
REMARK                            x       y       z     vdW  Elec       q    Type
REMARK                         _______ _______ _______ _____ _____    ______ ____
ROOT
ATOM      1  CG  ARG A   1       7.107   3.533  35.901  1.00  0.00    +0.000 C 
ENDROOT
BRANCH   1   2
ATOM      2  CB  ARG A   1       7.084   2.433  34.837  1.00  0.00    +0.000 C 
BRANCH   2   3
ATOM      3  CA  ARG A   1       5.783   2.333  34.029  1.00  0.00    +0.000 C 
BRANCH   3   4
ATOM      4  N   ARG A   1       4.968   1.233  34.598  1.00  0.00    +0.000 NA
ATOM      5  H1  ARG A   1       5.599   0.448  34.794  1.00  0.00    +0.000 HD
ATOM      6  H2  ARG A   1       4.362   0.864  33.860  1.00  0.00    +0.000 HD
ENDBRANCH   3   4
BRANCH   3   7
ATOM      7  C   ARG A   1       6.055   2.046  32.540  1.00  0.00    +0.000 C 
ATOM      8  O   ARG A   1       5.179   1.963  31.689  1.00  0.00    +0.000 OA
BRANCH   7   9
ATOM      9  OXT ARG A   1       7.366   1.920  32.231  1.00  0.00    +0.000 OA
ATOM     10  HXT ARG A   1       7.721   2.616  31.645  1.00  0.00    +0.000 HD
ENDBRANCH   7   9
ENDBRANCH   3   7
ENDBRANCH   2   3
ENDBRANCH   1   2
BRANCH   1  11
ATOM     11  CD  ARG A   1       5.989   4.564  35.730  1.00  0.00    +0.000 C 
BRANCH  11  12
ATOM     12  NE  ARG A   1       5.500   4.910  37.057  1.00  0.00    +0.000 NA
ATOM     13  CZ  ARG A   1       4.472   4.297  37.507  1.00  0.00    +0.000 C 
ATOM     14  NH1 ARG A   1       3.718   3.334  36.935  1.00  0.00    +0.000 N 
ATOM     15  NH2 ARG A   1       3.992   4.597  38.732  1.00  0.00    +0.000 N 
ATOM     16 HH11 ARG A   1       4.158   2.862  36.156  1.00  0.00    +0.000 HD
ATOM     17 HH12 ARG A   1       3.381   2.662  37.616  1.00  0.00    +0.000 HD
ATOM     18 HH21 ARG A   1       4.475   5.409  39.104  1.00  0.00    +0.000 HD
ATOM     19 HH22 ARG A   1       2.991   4.744  38.734  1.00  0.00    +0.000 HD
ENDBRANCH  11  12
ENDBRANCH   1  11
TORSDOF 7
ENDMDL
