REMARK  Name = 
REMARK  3 active torsions:
REMARK  status: ('A' for Active; 'I' for Inactive)
REMARK    1  A    between atoms: C_1  and  C_2
REMARK    2  A    between atoms: C_2  and  C_3
REMARK    3  A    between atoms: C_3  and  C_4
REMARK                            x       y       z     vdW  Elec       q    Type
REMARK                         _______ _______ _______ _____ _____    ______ ____
ROOT
ATOM      1  C   UNL     1       3.122  -0.970  -1.098  1.00  0.00    +0.000 C 
ENDROOT
BRANCH   1   2
ATOM      2  C   UNL     1       4.652  -1.018  -1.158  1.00  0.00    +0.000 C 
ATOM      3  O   UNL     1       5.274  -0.333  -0.301  1.00  0.00    +0.000 OA
ATOM      4  O   UNL     1       5.109  -1.755  -2.080  1.00  0.00    +0.000 OA
ENDBRANCH   1   2
BRANCH   1   6
ATOM      5  C   UNL     1       1.021  -0.103  -0.014  1.00  0.00    +0.000 C 
ATOM      6  C   UNL     1       2.542  -0.090   0.003  1.00  0.00    +0.000 C 
ENDBRANCH   1   6
TORSDOF 2
