MODEL 1
REMARK VINA RESULT:    -6.298      0.000      0.000
REMARK INTER + INTRA:          -7.968
REMARK INTER:                  -7.771
REMARK INTRA:                  -0.197
REMARK UNBOUND:                -0.197
REMARK  Name = 
REMARK  5 active torsions:
REMARK  status: ('A' for Active; 'I' for Inactive)
REMARK    1  A    between atoms: CG_4  and  CB_7
REMARK    2  A    between atoms: CB_7  and  CA_8
REMARK    3  A    between atoms: CA_8  and  C_9
REMARK    4  A    between atoms: CA_8  and  N_12
REMARK    5  A    between atoms: C_9  and  OXT_11
REMARK                            x       y       z     vdW  Elec       q    Type
REMARK                         _______ _______ _______ _____ _____    ______ ____
ROOT
ATOM      1  CA  PHE A   1      11.367  -9.857  42.857  1.00  0.00    +0.000 C 
ENDROOT
BRANCH   1   2
ATOM      2  N   PHE A   1      11.771 -11.243  42.508  1.00  0.00    +0.000 NA
ATOM      3  H1  PHE A   1      12.467 -11.546  43.197  1.00  0.00    +0.000 HD
ATOM      4  H2  PHE A   1      12.307 -11.210  41.637  1.00  0.00    +0.000 HD
ENDBRANCH   1   2
BRANCH   1   5
ATOM      5  C   PHE A   1      10.909  -9.126  41.581  1.00  0.00    +0.000 C 
ATOM      6  O   PHE A   1      11.285  -9.423  40.453  1.00  0.00    +0.000 OA
BRANCH   5   7
ATOM      7  OXT PHE A   1      10.021  -8.129  41.797  1.00  0.00    +0.000 OA
ATOM      8  HXT PHE A   1       9.199  -8.409  42.249  1.00  0.00    +0.000 HD
ENDBRANCH   5   7
ENDBRANCH   1   5
BRANCH   1   9
ATOM      9  CB  PHE A   1      12.554  -9.129  43.510  1.00  0.00    +0.000 C 
BRANCH   9  13
ATOM     10  CZ  PHE A   1      11.709  -7.714  47.495  1.00  0.00    +0.000 A 
ATOM     11  CE1 PHE A   1      10.758  -7.568  46.487  1.00  0.00    +0.000 A 
ATOM     12  CD1 PHE A   1      11.026  -8.039  45.201  1.00  0.00    +0.000 A 
ATOM     13  CG  PHE A   1      12.249  -8.661  44.914  1.00  0.00    +0.000 A 
ATOM     14  CD2 PHE A   1      13.194  -8.812  45.937  1.00  0.00    +0.000 A 
ATOM     15  CE2 PHE A   1      12.926  -8.337  47.220  1.00  0.00    +0.000 A 
ENDBRANCH   9  13
ENDBRANCH   1   9
TORSDOF 5
ENDMDL
MODEL 2
REMARK VINA RESULT:    -6.152      1.692      1.991
REMARK INTER + INTRA:          -7.788
REMARK INTER:                  -7.597
REMARK INTRA:                  -0.191
REMARK UNBOUND:                -0.197
REMARK  Name = 
REMARK  5 active torsions:
REMARK  status: ('A' for Active; 'I' for Inactive)
REMARK    1  A    between atoms: CG_4  and  CB_7
REMARK    2  A    between atoms: CB_7  and  CA_8
REMARK    3  A    between atoms: CA_8  and  C_9
REMARK    4  A    between atoms: CA_8  and  N_12
REMARK    5  A    between atoms: C_9  and  OXT_11
REMARK                            x       y       z     vdW  Elec       q    Type
REMARK                         _______ _______ _______ _____ _____    ______ ____
ROOT
ATOM      1  CA  PHE A   1      12.540  -9.566  43.137  1.00  0.00    +0.000 C 
ENDROOT
BRANCH   1   2
ATOM      2  N   PHE A   1      13.063  -8.825  41.960  1.00  0.00    +0.000 NA
ATOM      3  H1  PHE A   1      14.032  -8.564  42.164  1.00  0.00    +0.000 HD
ATOM      4  H2  PHE A   1      12.584  -7.922  41.913  1.00  0.00    +0.000 HD
ENDBRANCH   1   2
BRANCH   1   5
ATOM      5  C   PHE A   1      12.012 -10.939  42.681  1.00  0.00    +0.000 C 
ATOM      6  O   PHE A   1      11.222 -11.091  41.756  1.00  0.00    +0.000 OA
BRANCH   5   7
ATOM      7  OXT PHE A   1      12.513 -11.988  43.371  1.00  0.00    +0.000 OA
ATOM      8  HXT PHE A   1      11.837 -12.601  43.723  1.00  0.00    +0.000 HD
ENDBRANCH   5   7
ENDBRANCH   1   5
BRANCH   1   9
ATOM      9  CB  PHE A   1      11.426  -8.742  43.803  1.00  0.00    +0.000 C 
BRANCH   9  13
ATOM     10  CZ  PHE A   1      12.349  -7.666  47.875  1.00  0.00    +0.000 A 
ATOM     11  CE1 PHE A   1      11.141  -7.267  47.306  1.00  0.00    +0.000 A 
ATOM     12  CD1 PHE A   1      10.836  -7.627  45.992  1.00  0.00    +0.000 A 
ATOM     13  CG  PHE A   1      11.739  -8.391  45.239  1.00  0.00    +0.000 A 
ATOM     14  CD2 PHE A   1      12.945  -8.796  45.825  1.00  0.00    +0.000 A 
ATOM     15  CE2 PHE A   1      13.249  -8.431  47.136  1.00  0.00    +0.000 A 
ENDBRANCH   9  13
ENDBRANCH   1   9
TORSDOF 5
ENDMDL
MODEL 3
REMARK VINA RESULT:    -6.118      1.428      2.167
REMARK INTER + INTRA:          -7.746
REMARK INTER:                  -7.719
REMARK INTRA:                  -0.027
REMARK UNBOUND:                -0.197
REMARK  Name = 
REMARK  5 active torsions:
REMARK  status: ('A' for Active; 'I' for Inactive)
REMARK    1  A    between atoms: CG_4  and  CB_7
REMARK    2  A    between atoms: CB_7  and  CA_8
REMARK    3  A    between atoms: CA_8  and  C_9
REMARK    4  A    between atoms: CA_8  and  N_12
REMARK    5  A    between atoms: C_9  and  OXT_11
REMARK                            x       y       z     vdW  Elec       q    Type
REMARK                         _______ _______ _______ _____ _____    ______ ____
ROOT
ATOM      1  CA  PHE A   1      11.751  -8.617  43.262  1.00  0.00    +0.000 C 
ENDROOT
BRANCH   1   2
ATOM      2  N   PHE A   1      10.403  -9.188  43.012  1.00  0.00    +0.000 NA
ATOM      3  H1  PHE A   1      10.301  -9.310  41.999  1.00  0.00    +0.000 HD
ATOM      4  H2  PHE A   1       9.707  -8.471  43.231  1.00  0.00    +0.000 HD
ENDBRANCH   1   2
BRANCH   1   5
ATOM      5  C   PHE A   1      12.637  -8.842  42.022  1.00  0.00    +0.000 C 
ATOM      6  O   PHE A   1      13.825  -8.547  41.972  1.00  0.00    +0.000 OA
BRANCH   5   7
ATOM      7  OXT PHE A   1      12.002  -9.426  40.981  1.00  0.00    +0.000 OA
ATOM      8  HXT PHE A   1      11.054  -9.612  41.137  1.00  0.00    +0.000 HD
ENDBRANCH   5   7
ENDBRANCH   1   5
BRANCH   1   9
ATOM      9  CB  PHE A   1      12.365  -9.285  44.503  1.00  0.00    +0.000 C 
BRANCH   9  13
ATOM     10  CZ  PHE A   1      11.805  -7.018  48.129  1.00  0.00    +0.000 A 
ATOM     11  CE1 PHE A   1      13.017  -7.661  47.890  1.00  0.00    +0.000 A 
ATOM     12  CD1 PHE A   1      13.203  -8.383  46.709  1.00  0.00    +0.000 A 
ATOM     13  CG  PHE A   1      12.176  -8.466  45.759  1.00  0.00    +0.000 A 
ATOM     14  CD2 PHE A   1      10.965  -7.806  46.005  1.00  0.00    +0.000 A 
ATOM     15  CE2 PHE A   1      10.780  -7.089  47.187  1.00  0.00    +0.000 A 
ENDBRANCH   9  13
ENDBRANCH   1   9
TORSDOF 5
ENDMDL
MODEL 4
REMARK VINA RESULT:    -5.960     10.021     11.011
REMARK INTER + INTRA:          -7.551
REMARK INTER:                  -7.642
REMARK INTRA:                   0.091
REMARK UNBOUND:                -0.197
REMARK  Name = 
REMARK  5 active torsions:
REMARK  status: ('A' for Active; 'I' for Inactive)
REMARK    1  A    between atoms: CG_4  and  CB_7
REMARK    2  A    between atoms: CB_7  and  CA_8
REMARK    3  A    between atoms: CA_8  and  C_9
REMARK    4  A    between atoms: CA_8  and  N_12
REMARK    5  A    between atoms: C_9  and  OXT_11
REMARK                            x       y       z     vdW  Elec       q    Type
REMARK                         _______ _______ _______ _____ _____    ______ ____
ROOT
ATOM      1  CA  PHE A   1       6.078  -2.328  49.819  1.00  0.00    +0.000 C 
ENDROOT
BRANCH   1   2
ATOM      2  N   PHE A   1       7.438  -2.835  49.505  1.00  0.00    +0.000 NA
ATOM      3  H1  PHE A   1       7.923  -2.110  48.967  1.00  0.00    +0.000 HD
ATOM      4  H2  PHE A   1       7.347  -3.601  48.833  1.00  0.00    +0.000 HD
ENDBRANCH   1   2
BRANCH   1   5
ATOM      5  C   PHE A   1       5.075  -2.899  48.798  1.00  0.00    +0.000 C 
ATOM      6  O   PHE A   1       3.871  -2.996  49.008  1.00  0.00    +0.000 OA
BRANCH   5   7
ATOM      7  OXT PHE A   1       5.626  -3.269  47.620  1.00  0.00    +0.000 OA
ATOM      8  HXT PHE A   1       5.969  -4.185  47.603  1.00  0.00    +0.000 HD
ENDBRANCH   5   7
ENDBRANCH   1   5
BRANCH   1   9
ATOM      9  CB  PHE A   1       6.085  -0.791  49.780  1.00  0.00    +0.000 C 
BRANCH   9  13
ATOM     10  CZ  PHE A   1       9.710   0.956  51.329  1.00  0.00    +0.000 A 
ATOM     11  CE1 PHE A   1       8.960   0.090  52.122  1.00  0.00    +0.000 A 
ATOM     12  CD1 PHE A   1       7.794  -0.487  51.615  1.00  0.00    +0.000 A 
ATOM     13  CG  PHE A   1       7.371  -0.201  50.310  1.00  0.00    +0.000 A 
ATOM     14  CD2 PHE A   1       8.139   0.663  49.518  1.00  0.00    +0.000 A 
ATOM     15  CE2 PHE A   1       9.300   1.241  50.028  1.00  0.00    +0.000 A 
ENDBRANCH   9  13
ENDBRANCH   1   9
TORSDOF 5
ENDMDL
MODEL 5
REMARK VINA RESULT:    -5.797      3.450      5.090
REMARK INTER + INTRA:          -7.350
REMARK INTER:                  -7.480
REMARK INTRA:                   0.130
REMARK UNBOUND:                -0.197
REMARK  Name = 
REMARK  5 active torsions:
REMARK  status: ('A' for Active; 'I' for Inactive)
REMARK    1  A    between atoms: CG_4  and  CB_7
REMARK    2  A    between atoms: CB_7  and  CA_8
REMARK    3  A    between atoms: CA_8  and  C_9
REMARK    4  A    between atoms: CA_8  and  N_12
REMARK    5  A    between atoms: C_9  and  OXT_11
REMARK                            x       y       z     vdW  Elec       q    Type
REMARK                         _______ _______ _______ _____ _____    ______ ____
ROOT
ATOM      1  CA  PHE A   1      12.220  -7.891  46.716  1.00  0.00    +0.000 C 
ENDROOT
BRANCH   1   2
ATOM      2  N   PHE A   1      12.620  -9.231  47.218  1.00  0.00    +0.000 NA
ATOM      3  H1  PHE A   1      12.545  -9.890  46.437  1.00  0.00    +0.000 HD
ATOM      4  H2  PHE A   1      11.898  -9.557  47.866  1.00  0.00    +0.000 HD
ENDBRANCH   1   2
BRANCH   1   5
ATOM      5  C   PHE A   1      11.808  -7.004  47.906  1.00  0.00    +0.000 C 
ATOM      6  O   PHE A   1      10.816  -6.286  47.908  1.00  0.00    +0.000 OA
BRANCH   5   7
ATOM      7  OXT PHE A   1      12.623  -7.098  48.981  1.00  0.00    +0.000 OA
ATOM      8  HXT PHE A   1      13.236  -7.861  48.959  1.00  0.00    +0.000 HD
ENDBRANCH   5   7
ENDBRANCH   1   5
BRANCH   1   9
ATOM      9  CB  PHE A   1      11.060  -8.046  45.719  1.00  0.00    +0.000 C 
BRANCH   9  13
ATOM     10  CZ  PHE A   1      12.367  -9.220  41.781  1.00  0.00    +0.000 A 
ATOM     11  CE1 PHE A   1      11.048  -8.821  41.987  1.00  0.00    +0.000 A 
ATOM     12  CD1 PHE A   1      10.629  -8.427  43.259  1.00  0.00    +0.000 A 
ATOM     13  CG  PHE A   1      11.528  -8.430  44.335  1.00  0.00    +0.000 A 
ATOM     14  CD2 PHE A   1      12.854  -8.823  44.114  1.00  0.00    +0.000 A 
ATOM     15  CE2 PHE A   1      13.270  -9.220  42.843  1.00  0.00    +0.000 A 
ENDBRANCH   9  13
ENDBRANCH   1   9
TORSDOF 5
ENDMDL
MODEL 6
REMARK VINA RESULT:    -5.582      3.615      4.825
REMARK INTER + INTRA:          -7.085
REMARK INTER:                  -6.921
REMARK INTRA:                  -0.164
REMARK UNBOUND:                -0.197
REMARK  Name = 
REMARK  5 active torsions:
REMARK  status: ('A' for Active; 'I' for Inactive)
REMARK    1  A    between atoms: CG_4  and  CB_7
REMARK    2  A    between atoms: CB_7  and  CA_8
REMARK    3  A    between atoms: CA_8  and  C_9
REMARK    4  A    between atoms: CA_8  and  N_12
REMARK    5  A    between atoms: C_9  and  OXT_11
REMARK                            x       y       z     vdW  Elec       q    Type
REMARK                         _______ _______ _______ _____ _____    ______ ____
ROOT
ATOM      1  CA  PHE A   1      14.506 -11.216  41.005  1.00  0.00    +0.000 C 
ENDROOT
BRANCH   1   2
ATOM      2  N   PHE A   1      14.598 -12.372  41.933  1.00  0.00    +0.000 NA
ATOM      3  H1  PHE A   1      15.300 -12.143  42.644  1.00  0.00    +0.000 HD
ATOM      4  H2  PHE A   1      15.024 -13.153  41.429  1.00  0.00    +0.000 HD
ENDBRANCH   1   2
BRANCH   1   5
ATOM      5  C   PHE A   1      15.757 -11.186  40.105  1.00  0.00    +0.000 C 
ATOM      6  O   PHE A   1      16.798 -10.615  40.407  1.00  0.00    +0.000 OA
BRANCH   5   7
ATOM      7  OXT PHE A   1      15.628 -11.873  38.947  1.00  0.00    +0.000 OA
ATOM      8  HXT PHE A   1      16.020 -12.769  38.962  1.00  0.00    +0.000 HD
ENDBRANCH   5   7
ENDBRANCH   1   5
BRANCH   1   9
ATOM      9  CB  PHE A   1      14.385  -9.917  41.818  1.00  0.00    +0.000 C 
BRANCH   9  13
ATOM     10  CZ  PHE A   1      10.296  -8.589  42.150  1.00  0.00    +0.000 A 
ATOM     11  CE1 PHE A   1      11.165  -8.444  43.229  1.00  0.00    +0.000 A 
ATOM     12  CD1 PHE A   1      12.493  -8.860  43.117  1.00  0.00    +0.000 A 
ATOM     13  CG  PHE A   1      12.960  -9.426  41.922  1.00  0.00    +0.000 A 
ATOM     14  CD2 PHE A   1      12.079  -9.557  40.840  1.00  0.00    +0.000 A 
ATOM     15  CE2 PHE A   1      10.753  -9.144  40.956  1.00  0.00    +0.000 A 
ENDBRANCH   9  13
ENDBRANCH   1   9
TORSDOF 5
ENDMDL
MODEL 7
REMARK VINA RESULT:    -5.475      3.695      4.807
REMARK INTER + INTRA:          -6.953
REMARK INTER:                  -6.787
REMARK INTRA:                  -0.166
REMARK UNBOUND:                -0.197
REMARK  Name = 
REMARK  5 active torsions:
REMARK  status: ('A' for Active; 'I' for Inactive)
REMARK    1  A    between atoms: CG_4  and  CB_7
REMARK    2  A    between atoms: CB_7  and  CA_8
REMARK    3  A    between atoms: CA_8  and  C_9
REMARK    4  A    between atoms: CA_8  and  N_12
REMARK    5  A    between atoms: C_9  and  OXT_11
REMARK                            x       y       z     vdW  Elec       q    Type
REMARK                         _______ _______ _______ _____ _____    ______ ____
ROOT
ATOM      1  CA  PHE A   1      14.657 -11.075  40.958  1.00  0.00    +0.000 C 
ENDROOT
BRANCH   1   2
ATOM      2  N   PHE A   1      14.504 -12.209  41.905  1.00  0.00    +0.000 NA
ATOM      3  H1  PHE A   1      13.712 -11.995  42.519  1.00  0.00    +0.000 HD
ATOM      4  H2  PHE A   1      15.303 -12.200  42.545  1.00  0.00    +0.000 HD
ENDBRANCH   1   2
BRANCH   1   5
ATOM      5  C   PHE A   1      16.057 -11.134  40.316  1.00  0.00    +0.000 C 
ATOM      6  O   PHE A   1      16.262 -11.494  39.163  1.00  0.00    +0.000 OA
BRANCH   5   7
ATOM      7  OXT PHE A   1      17.060 -10.725  41.126  1.00  0.00    +0.000 OA
ATOM      8  HXT PHE A   1      17.424  -9.844  40.906  1.00  0.00    +0.000 HD
ENDBRANCH   5   7
ENDBRANCH   1   5
BRANCH   1   9
ATOM      9  CB  PHE A   1      14.455  -9.751  41.712  1.00  0.00    +0.000 C 
BRANCH   9  13
ATOM     10  CZ  PHE A   1      10.308  -8.646  42.140  1.00  0.00    +0.000 A 
ATOM     11  CE1 PHE A   1      10.763  -9.192  40.942  1.00  0.00    +0.000 A 
ATOM     12  CD1 PHE A   1      12.102  -9.563  40.808  1.00  0.00    +0.000 A 
ATOM     13  CG  PHE A   1      12.996  -9.390  41.874  1.00  0.00    +0.000 A 
ATOM     14  CD2 PHE A   1      12.525  -8.850  43.078  1.00  0.00    +0.000 A 
ATOM     15  CE2 PHE A   1      11.188  -8.476  43.208  1.00  0.00    +0.000 A 
ENDBRANCH   9  13
ENDBRANCH   1   9
TORSDOF 5
ENDMDL
MODEL 8
REMARK VINA RESULT:    -5.292      6.530      8.138
REMARK INTER + INTRA:          -6.727
REMARK INTER:                  -6.506
REMARK INTRA:                  -0.221
REMARK UNBOUND:                -0.197
REMARK  Name = 
REMARK  5 active torsions:
REMARK  status: ('A' for Active; 'I' for Inactive)
REMARK    1  A    between atoms: CG_4  and  CB_7
REMARK    2  A    between atoms: CB_7  and  CA_8
REMARK    3  A    between atoms: CA_8  and  C_9
REMARK    4  A    between atoms: CA_8  and  N_12
REMARK    5  A    between atoms: C_9  and  OXT_11
REMARK                            x       y       z     vdW  Elec       q    Type
REMARK                         _______ _______ _______ _____ _____    ______ ____
ROOT
ATOM      1  CA  PHE A   1      17.874  -8.366  41.809  1.00  0.00    +0.000 C 
ENDROOT
BRANCH   1   2
ATOM      2  N   PHE A   1      18.654  -7.102  41.838  1.00  0.00    +0.000 NA
ATOM      3  H1  PHE A   1      18.924  -6.927  42.811  1.00  0.00    +0.000 HD
ATOM      4  H2  PHE A   1      18.016  -6.329  41.631  1.00  0.00    +0.000 HD
ENDBRANCH   1   2
BRANCH   1   5
ATOM      5  C   PHE A   1      16.856  -8.362  42.965  1.00  0.00    +0.000 C 
ATOM      6  O   PHE A   1      17.118  -7.984  44.100  1.00  0.00    +0.000 OA
BRANCH   5   7
ATOM      7  OXT PHE A   1      15.620  -8.790  42.622  1.00  0.00    +0.000 OA
ATOM      8  HXT PHE A   1      14.938  -8.089  42.607  1.00  0.00    +0.000 HD
ENDBRANCH   5   7
ENDBRANCH   1   5
BRANCH   1   9
ATOM      9  CB  PHE A   1      18.835  -9.560  41.927  1.00  0.00    +0.000 C 
BRANCH   9  13
ATOM     10  CZ  PHE A   1      17.420 -13.111  39.931  1.00  0.00    +0.000 A 
ATOM     11  CE1 PHE A   1      18.031 -13.210  41.180  1.00  0.00    +0.000 A 
ATOM     12  CD1 PHE A   1      18.476 -12.059  41.832  1.00  0.00    +0.000 A 
ATOM     13  CG  PHE A   1      18.312 -10.800  41.239  1.00  0.00    +0.000 A 
ATOM     14  CD2 PHE A   1      17.687 -10.711  39.988  1.00  0.00    +0.000 A 
ATOM     15  CE2 PHE A   1      17.247 -11.862  39.336  1.00  0.00    +0.000 A 
ENDBRANCH   9  13
ENDBRANCH   1   9
TORSDOF 5
ENDMDL
