MODEL 1
REMARK VINA RESULT:    -6.305      0.000      0.000
REMARK INTER + INTRA:          -7.974
REMARK INTER:                  -7.779
REMARK INTRA:                  -0.196
REMARK UNBOUND:                -0.196
REMARK  Name = 
REMARK  5 active torsions:
REMARK  status: ('A' for Active; 'I' for Inactive)
REMARK    1  A    between atoms: CG_4  and  CB_7
REMARK    2  A    between atoms: CB_7  and  CA_8
REMARK    3  A    between atoms: CA_8  and  C_9
REMARK    4  A    between atoms: CA_8  and  N_12
REMARK    5  A    between atoms: C_9  and  OXT_11
REMARK                            x       y       z     vdW  Elec       q    Type
REMARK                         _______ _______ _______ _____ _____    ______ ____
ROOT
ATOM      1  CA  PHE A   1      11.328  -9.842  42.848  1.00  0.00    +0.000 C 
ENDROOT
BRANCH   1   2
ATOM      2  N   PHE A   1      11.752 -11.218  42.484  1.00  0.00    +0.000 NA
ATOM      3  H1  PHE A   1      12.746 -11.182  42.238  1.00  0.00    +0.000 HD
ATOM      4  H2  PHE A   1      11.303 -11.466  41.598  1.00  0.00    +0.000 HD
ENDBRANCH   1   2
BRANCH   1   5
ATOM      5  C   PHE A   1      10.833  -9.111  41.585  1.00  0.00    +0.000 C 
ATOM      6  O   PHE A   1      11.180  -9.407  40.448  1.00  0.00    +0.000 OA
BRANCH   5   7
ATOM      7  OXT PHE A   1       9.949  -8.117  41.826  1.00  0.00    +0.000 OA
ATOM      8  HXT PHE A   1       9.469  -8.199  42.674  1.00  0.00    +0.000 HD
ENDBRANCH   5   7
ENDBRANCH   1   5
BRANCH   1   9
ATOM      9  CB  PHE A   1      12.512  -9.096  43.485  1.00  0.00    +0.000 C 
BRANCH   9  13
ATOM     10  CZ  PHE A   1      11.713  -7.715  47.491  1.00  0.00    +0.000 A 
ATOM     11  CE1 PHE A   1      10.758  -7.543  46.491  1.00  0.00    +0.000 A 
ATOM     12  CD1 PHE A   1      11.011  -8.003  45.197  1.00  0.00    +0.000 A 
ATOM     13  CG  PHE A   1      12.222  -8.639  44.896  1.00  0.00    +0.000 A 
ATOM     14  CD2 PHE A   1      13.171  -8.817  45.911  1.00  0.00    +0.000 A 
ATOM     15  CE2 PHE A   1      12.918  -8.352  47.201  1.00  0.00    +0.000 A 
ENDBRANCH   9  13
ENDBRANCH   1   9
TORSDOF 5
ENDMDL
MODEL 2
REMARK VINA RESULT:    -6.164      1.660      1.961
REMARK INTER + INTRA:          -7.800
REMARK INTER:                  -7.613
REMARK INTRA:                  -0.187
REMARK UNBOUND:                -0.196
REMARK  Name = 
REMARK  5 active torsions:
REMARK  status: ('A' for Active; 'I' for Inactive)
REMARK    1  A    between atoms: CG_4  and  CB_7
REMARK    2  A    between atoms: CB_7  and  CA_8
REMARK    3  A    between atoms: CA_8  and  C_9
REMARK    4  A    between atoms: CA_8  and  N_12
REMARK    5  A    between atoms: C_9  and  OXT_11
REMARK                            x       y       z     vdW  Elec       q    Type
REMARK                         _______ _______ _______ _____ _____    ______ ____
ROOT
ATOM      1  CA  PHE A   1      12.502  -9.513  43.097  1.00  0.00    +0.000 C 
ENDROOT
BRANCH   1   2
ATOM      2  N   PHE A   1      13.047  -8.764  41.936  1.00  0.00    +0.000 NA
ATOM      3  H1  PHE A   1      13.800  -8.162  42.282  1.00  0.00    +0.000 HD
ATOM      4  H2  PHE A   1      12.338  -8.095  41.626  1.00  0.00    +0.000 HD
ENDBRANCH   1   2
BRANCH   1   5
ATOM      5  C   PHE A   1      11.931 -10.859  42.611  1.00  0.00    +0.000 C 
ATOM      6  O   PHE A   1      11.105 -10.963  41.712  1.00  0.00    +0.000 OA
BRANCH   5   7
ATOM      7  OXT PHE A   1      12.439 -11.942  43.243  1.00  0.00    +0.000 OA
ATOM      8  HXT PHE A   1      13.331 -12.206  42.940  1.00  0.00    +0.000 HD
ENDBRANCH   5   7
ENDBRANCH   1   5
BRANCH   1   9
ATOM      9  CB  PHE A   1      11.413  -8.671  43.781  1.00  0.00    +0.000 C 
BRANCH   9  13
ATOM     10  CZ  PHE A   1      12.371  -7.699  47.872  1.00  0.00    +0.000 A 
ATOM     11  CE1 PHE A   1      11.151  -7.301  47.328  1.00  0.00    +0.000 A 
ATOM     12  CD1 PHE A   1      10.835  -7.628  46.009  1.00  0.00    +0.000 A 
ATOM     13  CG  PHE A   1      11.739  -8.357  45.223  1.00  0.00    +0.000 A 
ATOM     14  CD2 PHE A   1      12.958  -8.761  45.783  1.00  0.00    +0.000 A 
ATOM     15  CE2 PHE A   1      13.273  -8.429  47.100  1.00  0.00    +0.000 A 
ENDBRANCH   9  13
ENDBRANCH   1   9
TORSDOF 5
ENDMDL
MODEL 3
REMARK VINA RESULT:    -6.129      1.443      2.184
REMARK INTER + INTRA:          -7.758
REMARK INTER:                  -7.712
REMARK INTRA:                  -0.046
REMARK UNBOUND:                -0.196
REMARK  Name = 
REMARK  5 active torsions:
REMARK  status: ('A' for Active; 'I' for Inactive)
REMARK    1  A    between atoms: CG_4  and  CB_7
REMARK    2  A    between atoms: CB_7  and  CA_8
REMARK    3  A    between atoms: CA_8  and  C_9
REMARK    4  A    between atoms: CA_8  and  N_12
REMARK    5  A    between atoms: C_9  and  OXT_11
REMARK                            x       y       z     vdW  Elec       q    Type
REMARK                         _______ _______ _______ _____ _____    ______ ____
ROOT
ATOM      1  CA  PHE A   1      11.799  -8.630  43.166  1.00  0.00    +0.000 C 
ENDROOT
BRANCH   1   2
ATOM      2  N   PHE A   1      10.477  -9.231  42.852  1.00  0.00    +0.000 NA
ATOM      3  H1  PHE A   1      10.263  -9.911  43.588  1.00  0.00    +0.000 HD
ATOM      4  H2  PHE A   1      10.582  -9.815  42.019  1.00  0.00    +0.000 HD
ENDBRANCH   1   2
BRANCH   1   5
ATOM      5  C   PHE A   1      12.742  -8.821  41.964  1.00  0.00    +0.000 C 
ATOM      6  O   PHE A   1      13.956  -8.662  42.020  1.00  0.00    +0.000 OA
BRANCH   5   7
ATOM      7  OXT PHE A   1      12.125  -9.210  40.826  1.00  0.00    +0.000 OA
ATOM      8  HXT PHE A   1      11.238  -9.600  40.959  1.00  0.00    +0.000 HD
ENDBRANCH   5   7
ENDBRANCH   1   5
BRANCH   1   9
ATOM      9  CB  PHE A   1      12.374  -9.296  44.427  1.00  0.00    +0.000 C 
BRANCH   9  13
ATOM     10  CZ  PHE A   1      11.671  -7.039  48.033  1.00  0.00    +0.000 A 
ATOM     11  CE1 PHE A   1      12.869  -7.731  47.867  1.00  0.00    +0.000 A 
ATOM     12  CD1 PHE A   1      13.102  -8.449  46.693  1.00  0.00    +0.000 A 
ATOM     13  CG  PHE A   1      12.137  -8.481  45.677  1.00  0.00    +0.000 A 
ATOM     14  CD2 PHE A   1      10.941  -7.773  45.851  1.00  0.00    +0.000 A 
ATOM     15  CE2 PHE A   1      10.708  -7.060  47.026  1.00  0.00    +0.000 A 
ENDBRANCH   9  13
ENDBRANCH   1   9
TORSDOF 5
ENDMDL
MODEL 4
REMARK VINA RESULT:    -5.923     10.087     11.052
REMARK INTER + INTRA:          -7.504
REMARK INTER:                  -7.649
REMARK INTRA:                   0.145
REMARK UNBOUND:                -0.196
REMARK  Name = 
REMARK  5 active torsions:
REMARK  status: ('A' for Active; 'I' for Inactive)
REMARK    1  A    between atoms: CG_4  and  CB_7
REMARK    2  A    between atoms: CB_7  and  CA_8
REMARK    3  A    between atoms: CA_8  and  C_9
REMARK    4  A    between atoms: CA_8  and  N_12
REMARK    5  A    between atoms: C_9  and  OXT_11
REMARK                            x       y       z     vdW  Elec       q    Type
REMARK                         _______ _______ _______ _____ _____    ______ ____
ROOT
ATOM      1  CA  PHE A   1       6.047  -2.221  49.861  1.00  0.00    +0.000 C 
ENDROOT
BRANCH   1   2
ATOM      2  N   PHE A   1       7.404  -2.763  49.594  1.00  0.00    +0.000 NA
ATOM      3  H1  PHE A   1       7.728  -2.366  48.707  1.00  0.00    +0.000 HD
ATOM      4  H2  PHE A   1       7.314  -3.760  49.384  1.00  0.00    +0.000 HD
ENDBRANCH   1   2
BRANCH   1   5
ATOM      5  C   PHE A   1       5.060  -2.790  48.824  1.00  0.00    +0.000 C 
ATOM      6  O   PHE A   1       3.853  -2.887  49.015  1.00  0.00    +0.000 OA
BRANCH   5   7
ATOM      7  OXT PHE A   1       5.629  -3.156  47.653  1.00  0.00    +0.000 OA
ATOM      8  HXT PHE A   1       5.021  -3.601  47.029  1.00  0.00    +0.000 HD
ENDBRANCH   5   7
ENDBRANCH   1   5
BRANCH   1   9
ATOM      9  CB  PHE A   1       6.089  -0.685  49.793  1.00  0.00    +0.000 C 
BRANCH   9  13
ATOM     10  CZ  PHE A   1       9.761   1.004  51.297  1.00  0.00    +0.000 A 
ATOM     11  CE1 PHE A   1       9.014   0.138  52.094  1.00  0.00    +0.000 A 
ATOM     12  CD1 PHE A   1       7.833  -0.420  51.602  1.00  0.00    +0.000 A 
ATOM     13  CG  PHE A   1       7.391  -0.115  50.307  1.00  0.00    +0.000 A 
ATOM     14  CD2 PHE A   1       8.155   0.748  49.511  1.00  0.00    +0.000 A 
ATOM     15  CE2 PHE A   1       9.332   1.308  50.006  1.00  0.00    +0.000 A 
ENDBRANCH   9  13
ENDBRANCH   1   9
TORSDOF 5
ENDMDL
MODEL 5
REMARK VINA RESULT:    -5.866      9.910     11.414
REMARK INTER + INTRA:          -7.433
REMARK INTER:                  -7.233
REMARK INTRA:                  -0.200
REMARK UNBOUND:                -0.196
REMARK  Name = 
REMARK  5 active torsions:
REMARK  status: ('A' for Active; 'I' for Inactive)
REMARK    1  A    between atoms: CG_4  and  CB_7
REMARK    2  A    between atoms: CB_7  and  CA_8
REMARK    3  A    between atoms: CA_8  and  C_9
REMARK    4  A    between atoms: CA_8  and  N_12
REMARK    5  A    between atoms: C_9  and  OXT_11
REMARK                            x       y       z     vdW  Elec       q    Type
REMARK                         _______ _______ _______ _____ _____    ______ ____
ROOT
ATOM      1  CA  PHE A   1       7.432  -0.387  49.998  1.00  0.00    +0.000 C 
ENDROOT
BRANCH   1   2
ATOM      2  N   PHE A   1       8.899  -0.236  50.173  1.00  0.00    +0.000 NA
ATOM      3  H1  PHE A   1       9.290   0.063  49.275  1.00  0.00    +0.000 HD
ATOM      4  H2  PHE A   1       9.303  -1.167  50.304  1.00  0.00    +0.000 HD
ENDBRANCH   1   2
BRANCH   1   5
ATOM      5  C   PHE A   1       6.712   0.771  50.715  1.00  0.00    +0.000 C 
ATOM      6  O   PHE A   1       7.178   1.368  51.679  1.00  0.00    +0.000 OA
BRANCH   5   7
ATOM      7  OXT PHE A   1       5.517   1.105  50.177  1.00  0.00    +0.000 OA
ATOM      8  HXT PHE A   1       4.879   1.484  50.814  1.00  0.00    +0.000 HD
ENDBRANCH   5   7
ENDBRANCH   1   5
BRANCH   1   9
ATOM      9  CB  PHE A   1       6.988  -1.745  50.566  1.00  0.00    +0.000 C 
BRANCH   9  13
ATOM     10  CZ  PHE A   1       4.696  -4.125  47.795  1.00  0.00    +0.000 A 
ATOM     11  CE1 PHE A   1       4.063  -3.157  48.572  1.00  0.00    +0.000 A 
ATOM     12  CD1 PHE A   1       4.807  -2.377  49.459  1.00  0.00    +0.000 A 
ATOM     13  CG  PHE A   1       6.192  -2.560  49.573  1.00  0.00    +0.000 A 
ATOM     14  CD2 PHE A   1       6.820  -3.528  48.779  1.00  0.00    +0.000 A 
ATOM     15  CE2 PHE A   1       6.074  -4.309  47.898  1.00  0.00    +0.000 A 
ENDBRANCH   9  13
ENDBRANCH   1   9
TORSDOF 5
ENDMDL
MODEL 6
REMARK VINA RESULT:    -5.842      9.409     10.895
REMARK INTER + INTRA:          -7.403
REMARK INTER:                  -7.239
REMARK INTRA:                  -0.164
REMARK UNBOUND:                -0.196
REMARK  Name = 
REMARK  5 active torsions:
REMARK  status: ('A' for Active; 'I' for Inactive)
REMARK    1  A    between atoms: CG_4  and  CB_7
REMARK    2  A    between atoms: CB_7  and  CA_8
REMARK    3  A    between atoms: CA_8  and  C_9
REMARK    4  A    between atoms: CA_8  and  N_12
REMARK    5  A    between atoms: C_9  and  OXT_11
REMARK                            x       y       z     vdW  Elec       q    Type
REMARK                         _______ _______ _______ _____ _____    ______ ____
ROOT
ATOM      1  CA  PHE A   1       5.559  -2.603  49.414  1.00  0.00    +0.000 C 
ENDROOT
BRANCH   1   2
ATOM      2  N   PHE A   1       4.825  -3.221  50.549  1.00  0.00    +0.000 NA
ATOM      3  H1  PHE A   1       4.854  -4.237  50.420  1.00  0.00    +0.000 HD
ATOM      4  H2  PHE A   1       3.831  -3.001  50.442  1.00  0.00    +0.000 HD
ENDBRANCH   1   2
BRANCH   1   5
ATOM      5  C   PHE A   1       5.538  -3.565  48.211  1.00  0.00    +0.000 C 
ATOM      6  O   PHE A   1       6.468  -4.307  47.917  1.00  0.00    +0.000 OA
BRANCH   5   7
ATOM      7  OXT PHE A   1       4.384  -3.551  47.506  1.00  0.00    +0.000 OA
ATOM      8  HXT PHE A   1       4.296  -4.281  46.859  1.00  0.00    +0.000 HD
ENDBRANCH   5   7
ENDBRANCH   1   5
BRANCH   1   9
ATOM      9  CB  PHE A   1       7.002  -2.298  49.848  1.00  0.00    +0.000 C 
BRANCH   9  13
ATOM     10  CZ  PHE A   1       7.472   1.655  51.506  1.00  0.00    +0.000 A 
ATOM     11  CE1 PHE A   1       6.460   1.403  50.582  1.00  0.00    +0.000 A 
ATOM     12  CD1 PHE A   1       6.299   0.120  50.056  1.00  0.00    +0.000 A 
ATOM     13  CG  PHE A   1       7.150  -0.921  50.452  1.00  0.00    +0.000 A 
ATOM     14  CD2 PHE A   1       8.157  -0.659  51.391  1.00  0.00    +0.000 A 
ATOM     15  CE2 PHE A   1       8.319   0.624  51.911  1.00  0.00    +0.000 A 
ENDBRANCH   9  13
ENDBRANCH   1   9
TORSDOF 5
ENDMDL
MODEL 7
REMARK VINA RESULT:    -5.794      3.439      5.084
REMARK INTER + INTRA:          -7.345
REMARK INTER:                  -7.475
REMARK INTRA:                   0.130
REMARK UNBOUND:                -0.196
REMARK  Name = 
REMARK  5 active torsions:
REMARK  status: ('A' for Active; 'I' for Inactive)
REMARK    1  A    between atoms: CG_4  and  CB_7
REMARK    2  A    between atoms: CB_7  and  CA_8
REMARK    3  A    between atoms: CA_8  and  C_9
REMARK    4  A    between atoms: CA_8  and  N_12
REMARK    5  A    between atoms: C_9  and  OXT_11
REMARK                            x       y       z     vdW  Elec       q    Type
REMARK                         _______ _______ _______ _____ _____    ______ ____
ROOT
ATOM      1  CA  PHE A   1      12.226  -7.926  46.701  1.00  0.00    +0.000 C 
ENDROOT
BRANCH   1   2
ATOM      2  N   PHE A   1      12.633  -9.270  47.187  1.00  0.00    +0.000 NA
ATOM      3  H1  PHE A   1      13.507  -9.158  47.709  1.00  0.00    +0.000 HD
ATOM      4  H2  PHE A   1      12.915  -9.829  46.378  1.00  0.00    +0.000 HD
ENDBRANCH   1   2
BRANCH   1   5
ATOM      5  C   PHE A   1      11.822  -7.052  47.903  1.00  0.00    +0.000 C 
ATOM      6  O   PHE A   1      10.826  -6.338  47.922  1.00  0.00    +0.000 OA
BRANCH   5   7
ATOM      7  OXT PHE A   1      12.649  -7.152  48.969  1.00  0.00    +0.000 OA
ATOM      8  HXT PHE A   1      13.131  -8.001  49.029  1.00  0.00    +0.000 HD
ENDBRANCH   5   7
ENDBRANCH   1   5
BRANCH   1   9
ATOM      9  CB  PHE A   1      11.057  -8.075  45.714  1.00  0.00    +0.000 C 
BRANCH   9  13
ATOM     10  CZ  PHE A   1      12.332  -9.204  41.752  1.00  0.00    +0.000 A 
ATOM     11  CE1 PHE A   1      11.016  -8.805  41.973  1.00  0.00    +0.000 A 
ATOM     12  CD1 PHE A   1      10.607  -8.426  43.252  1.00  0.00    +0.000 A 
ATOM     13  CG  PHE A   1      11.514  -8.443  44.321  1.00  0.00    +0.000 A 
ATOM     14  CD2 PHE A   1      12.838  -8.835  44.085  1.00  0.00    +0.000 A 
ATOM     15  CE2 PHE A   1      13.243  -9.218  42.807  1.00  0.00    +0.000 A 
ENDBRANCH   9  13
ENDBRANCH   1   9
TORSDOF 5
ENDMDL
MODEL 8
REMARK VINA RESULT:    -5.558      3.650      4.909
REMARK INTER + INTRA:          -7.054
REMARK INTER:                  -6.890
REMARK INTRA:                  -0.164
REMARK UNBOUND:                -0.196
REMARK  Name = 
REMARK  5 active torsions:
REMARK  status: ('A' for Active; 'I' for Inactive)
REMARK    1  A    between atoms: CG_4  and  CB_7
REMARK    2  A    between atoms: CB_7  and  CA_8
REMARK    3  A    between atoms: CA_8  and  C_9
REMARK    4  A    between atoms: CA_8  and  N_12
REMARK    5  A    between atoms: C_9  and  OXT_11
REMARK                            x       y       z     vdW  Elec       q    Type
REMARK                         _______ _______ _______ _____ _____    ______ ____
ROOT
ATOM      1  CA  PHE A   1      14.527 -11.281  40.986  1.00  0.00    +0.000 C 
ENDROOT
BRANCH   1   2
ATOM      2  N   PHE A   1      14.511 -12.371  41.995  1.00  0.00    +0.000 NA
ATOM      3  H1  PHE A   1      15.483 -12.634  42.184  1.00  0.00    +0.000 HD
ATOM      4  H2  PHE A   1      14.125 -13.210  41.553  1.00  0.00    +0.000 HD
ENDBRANCH   1   2
BRANCH   1   5
ATOM      5  C   PHE A   1      15.825 -11.371  40.162  1.00  0.00    +0.000 C 
ATOM      6  O   PHE A   1      16.932 -11.085  40.602  1.00  0.00    +0.000 OA
BRANCH   5   7
ATOM      7  OXT PHE A   1      15.654 -11.825  38.899  1.00  0.00    +0.000 OA
ATOM      8  HXT PHE A   1      15.126 -11.235  38.325  1.00  0.00    +0.000 HD
ENDBRANCH   5   7
ENDBRANCH   1   5
BRANCH   1   9
ATOM      9  CB  PHE A   1      14.424  -9.924  41.701  1.00  0.00    +0.000 C 
BRANCH   9  13
ATOM     10  CZ  PHE A   1      10.331  -8.644  42.156  1.00  0.00    +0.000 A 
ATOM     11  CE1 PHE A   1      11.231  -8.490  43.209  1.00  0.00    +0.000 A 
ATOM     12  CD1 PHE A   1      12.559  -8.891  43.057  1.00  0.00    +0.000 A 
ATOM     13  CG  PHE A   1      12.997  -9.450  41.848  1.00  0.00    +0.000 A 
ATOM     14  CD2 PHE A   1      12.086  -9.591  40.792  1.00  0.00    +0.000 A 
ATOM     15  CE2 PHE A   1      10.759  -9.193  40.949  1.00  0.00    +0.000 A 
ENDBRANCH   9  13
ENDBRANCH   1   9
TORSDOF 5
ENDMDL
MODEL 9
REMARK VINA RESULT:    -5.378      3.770      4.922
REMARK INTER + INTRA:          -6.831
REMARK INTER:                  -6.672
REMARK INTRA:                  -0.159
REMARK UNBOUND:                -0.196
REMARK  Name = 
REMARK  5 active torsions:
REMARK  status: ('A' for Active; 'I' for Inactive)
REMARK    1  A    between atoms: CG_4  and  CB_7
REMARK    2  A    between atoms: CB_7  and  CA_8
REMARK    3  A    between atoms: CA_8  and  C_9
REMARK    4  A    between atoms: CA_8  and  N_12
REMARK    5  A    between atoms: C_9  and  OXT_11
REMARK                            x       y       z     vdW  Elec       q    Type
REMARK                         _______ _______ _______ _____ _____    ______ ____
ROOT
ATOM      1  CA  PHE A   1      14.797 -11.062  41.050  1.00  0.00    +0.000 C 
ENDROOT
BRANCH   1   2
ATOM      2  N   PHE A   1      14.458 -12.233  41.898  1.00  0.00    +0.000 NA
ATOM      3  H1  PHE A   1      15.075 -13.004  41.625  1.00  0.00    +0.000 HD
ATOM      4  H2  PHE A   1      13.531 -12.569  41.623  1.00  0.00    +0.000 HD
ENDBRANCH   1   2
BRANCH   1   5
ATOM      5  C   PHE A   1      16.273 -11.157  40.619  1.00  0.00    +0.000 C 
ATOM      6  O   PHE A   1      16.639 -11.214  39.451  1.00  0.00    +0.000 OA
BRANCH   5   7
ATOM      7  OXT PHE A   1      17.156 -11.146  41.644  1.00  0.00    +0.000 OA
ATOM      8  HXT PHE A   1      17.742 -11.928  41.682  1.00  0.00    +0.000 HD
ENDBRANCH   5   7
ENDBRANCH   1   5
BRANCH   1   9
ATOM      9  CB  PHE A   1      14.538  -9.769  41.840  1.00  0.00    +0.000 C 
BRANCH   9  13
ATOM     10  CZ  PHE A   1      10.366  -8.699  42.043  1.00  0.00    +0.000 A 
ATOM     11  CE1 PHE A   1      10.895  -9.220  40.864  1.00  0.00    +0.000 A 
ATOM     12  CD1 PHE A   1      12.242  -9.580  40.803  1.00  0.00    +0.000 A 
ATOM     13  CG  PHE A   1      13.070  -9.421  41.923  1.00  0.00    +0.000 A 
ATOM     14  CD2 PHE A   1      12.525  -8.906  43.107  1.00  0.00    +0.000 A 
ATOM     15  CE2 PHE A   1      11.180  -8.543  43.164  1.00  0.00    +0.000 A 
ENDBRANCH   9  13
ENDBRANCH   1   9
TORSDOF 5
ENDMDL
