REMARK  Name = 
REMARK  5 active torsions:
REMARK  status: ('A' for Active; 'I' for Inactive)
REMARK    1  A    between atoms: CG_4  and  CB_7
REMARK    2  A    between atoms: CB_7  and  CA_8
REMARK    3  A    between atoms: CA_8  and  C_9
REMARK    4  A    between atoms: CA_8  and  N_12
REMARK    5  A    between atoms: C_9  and  OXT_11
REMARK                            x       y       z     vdW  Elec       q    Type
REMARK                         _______ _______ _______ _____ _____    ______ ____
ROOT
ATOM      1  CA  PHE A   1      -3.481  -1.096   0.166  1.00  0.00    +0.000 C 
ENDROOT
BRANCH   1   2
ATOM      2  N   PHE A   1      -4.908  -1.094  -0.247  1.00  0.00    +0.000 NA
ATOM      3  H1  PHE A   1      -5.357  -0.285   0.193  1.00  0.00    +0.000 HD
ATOM      4  H2  PHE A   1      -5.371  -1.889   0.201  1.00  0.00    +0.000 HD
ENDBRANCH   1   2
BRANCH   1   5
ATOM      5  C   PHE A   1      -3.397  -1.070   1.704  1.00  0.00    +0.000 C 
ATOM      6  O   PHE A   1      -4.320  -0.720   2.430  1.00  0.00    +0.000 OA
BRANCH   5   7
ATOM      7  OXT PHE A   1      -2.216  -1.496   2.206  1.00  0.00    +0.000 OA
ATOM      8  HXT PHE A   1      -1.540  -1.704   1.530  1.00  0.00    +0.000 HD
ENDBRANCH   5   7
ENDBRANCH   1   5
BRANCH   1   9
ATOM      9  CB  PHE A   1      -2.773   0.125  -0.443  1.00  0.00    +0.000 C 
BRANCH   9  13
ATOM     10  CZ  PHE A   1       1.517  -0.265  -0.241  1.00  0.00    +0.000 A 
ATOM     11  CE1 PHE A   1       0.793  -1.006  -1.173  1.00  0.00    +0.000 A 
ATOM     12  CD1 PHE A   1      -0.594  -0.869  -1.248  1.00  0.00    +0.000 A 
ATOM     13  CG  PHE A   1      -1.267   0.012  -0.390  1.00  0.00    +0.000 A 
ATOM     14  CD2 PHE A   1      -0.528   0.760   0.536  1.00  0.00    +0.000 A 
ATOM     15  CE2 PHE A   1       0.857   0.618   0.612  1.00  0.00    +0.000 A 
ENDBRANCH   9  13
ENDBRANCH   1   9
TORSDOF 5
