MODEL 1
REMARK VINA RESULT:    -6.286      0.000      0.000
REMARK INTER + INTRA:          -7.936
REMARK INTER:                  -7.756
REMARK INTRA:                  -0.180
REMARK UNBOUND:                -0.180
REMARK  Name = 
REMARK  5 active torsions:
REMARK  status: ('A' for Active; 'I' for Inactive)
REMARK    1  A    between atoms: CG_4  and  CB_7
REMARK    2  A    between atoms: CB_7  and  CA_8
REMARK    3  A    between atoms: CA_8  and  C_9
REMARK    4  A    between atoms: CA_8  and  N_12
REMARK    5  A    between atoms: C_9  and  OXT_11
REMARK                            x       y       z     vdW  Elec       q    Type
REMARK                         _______ _______ _______ _____ _____    ______ ____
ROOT
ATOM      1  CA  PHE A   1      11.317  -9.875  42.857  1.00  0.00    +0.000 C 
ENDROOT
BRANCH   1   2
ATOM      2  N   PHE A   1      11.698 -11.263  42.487  1.00  0.00    +0.000 NA
ATOM      3  H1  PHE A   1      12.516 -11.207  41.873  1.00  0.00    +0.000 HD
ATOM      4  H2  PHE A   1      10.971 -11.640  41.873  1.00  0.00    +0.000 HD
ENDBRANCH   1   2
BRANCH   1   5
ATOM      5  C   PHE A   1      10.825  -9.131  41.600  1.00  0.00    +0.000 C 
ATOM      6  O   PHE A   1      11.132  -9.450  40.457  1.00  0.00    +0.000 OA
BRANCH   5   7
ATOM      7  OXT PHE A   1       9.991  -8.098  41.854  1.00  0.00    +0.000 OA
ATOM      8  HXT PHE A   1       9.809  -7.526  41.082  1.00  0.00    +0.000 HD
ENDBRANCH   5   7
ENDBRANCH   1   5
BRANCH   1   9
ATOM      9  CB  PHE A   1      12.530  -9.162  43.476  1.00  0.00    +0.000 C 
BRANCH   9  13
ATOM     10  CZ  PHE A   1      11.704  -7.727  47.457  1.00  0.00    +0.000 A 
ATOM     11  CE1 PHE A   1      12.932  -8.320  47.172  1.00  0.00    +0.000 A 
ATOM     12  CD1 PHE A   1      13.205  -8.772  45.879  1.00  0.00    +0.000 A 
ATOM     13  CG  PHE A   1      12.250  -8.632  44.863  1.00  0.00    +0.000 A 
ATOM     14  CD2 PHE A   1      11.022  -8.025  45.159  1.00  0.00    +0.000 A 
ATOM     15  CE2 PHE A   1      10.750  -7.578  46.452  1.00  0.00    +0.000 A 
ENDBRANCH   9  13
ENDBRANCH   1   9
TORSDOF 5
ENDMDL
MODEL 2
REMARK VINA RESULT:    -6.150      1.688      2.380
REMARK INTER + INTRA:          -7.769
REMARK INTER:                  -7.584
REMARK INTRA:                  -0.185
REMARK UNBOUND:                -0.180
REMARK  Name = 
REMARK  5 active torsions:
REMARK  status: ('A' for Active; 'I' for Inactive)
REMARK    1  A    between atoms: CG_4  and  CB_7
REMARK    2  A    between atoms: CB_7  and  CA_8
REMARK    3  A    between atoms: CA_8  and  C_9
REMARK    4  A    between atoms: CA_8  and  N_12
REMARK    5  A    between atoms: C_9  and  OXT_11
REMARK                            x       y       z     vdW  Elec       q    Type
REMARK                         _______ _______ _______ _____ _____    ______ ____
ROOT
ATOM      1  CA  PHE A   1      12.573  -9.577  43.101  1.00  0.00    +0.000 C 
ENDROOT
BRANCH   1   2
ATOM      2  N   PHE A   1      13.012  -8.860  41.876  1.00  0.00    +0.000 NA
ATOM      3  H1  PHE A   1      13.446  -7.980  42.171  1.00  0.00    +0.000 HD
ATOM      4  H2  PHE A   1      12.177  -8.550  41.372  1.00  0.00    +0.000 HD
ENDBRANCH   1   2
BRANCH   1   5
ATOM      5  C   PHE A   1      12.117 -10.999  42.721  1.00  0.00    +0.000 C 
ATOM      6  O   PHE A   1      12.583 -12.018  43.216  1.00  0.00    +0.000 OA
BRANCH   5   7
ATOM      7  OXT PHE A   1      11.125 -11.040  41.802  1.00  0.00    +0.000 OA
ATOM      8  HXT PHE A   1      10.832 -11.942  41.564  1.00  0.00    +0.000 HD
ENDBRANCH   5   7
ENDBRANCH   1   5
BRANCH   1   9
ATOM      9  CB  PHE A   1      11.431  -8.794  43.768  1.00  0.00    +0.000 C 
BRANCH   9  13
ATOM     10  CZ  PHE A   1      12.334  -7.666  47.832  1.00  0.00    +0.000 A 
ATOM     11  CE1 PHE A   1      11.123  -7.286  47.255  1.00  0.00    +0.000 A 
ATOM     12  CD1 PHE A   1      10.825  -7.663  45.945  1.00  0.00    +0.000 A 
ATOM     13  CG  PHE A   1      11.737  -8.425  45.201  1.00  0.00    +0.000 A 
ATOM     14  CD2 PHE A   1      12.946  -8.811  45.794  1.00  0.00    +0.000 A 
ATOM     15  CE2 PHE A   1      13.244  -8.429  47.102  1.00  0.00    +0.000 A 
ENDBRANCH   9  13
ENDBRANCH   1   9
TORSDOF 5
ENDMDL
MODEL 3
REMARK VINA RESULT:    -5.541      3.637      4.788
REMARK INTER + INTRA:          -7.017
REMARK INTER:                  -6.852
REMARK INTRA:                  -0.165
REMARK UNBOUND:                -0.180
REMARK  Name = 
REMARK  5 active torsions:
REMARK  status: ('A' for Active; 'I' for Inactive)
REMARK    1  A    between atoms: CG_4  and  CB_7
REMARK    2  A    between atoms: CB_7  and  CA_8
REMARK    3  A    between atoms: CA_8  and  C_9
REMARK    4  A    between atoms: CA_8  and  N_12
REMARK    5  A    between atoms: C_9  and  OXT_11
REMARK                            x       y       z     vdW  Elec       q    Type
REMARK                         _______ _______ _______ _____ _____    ______ ____
ROOT
ATOM      1  CA  PHE A   1      14.564 -11.143  41.001  1.00  0.00    +0.000 C 
ENDROOT
BRANCH   1   2
ATOM      2  N   PHE A   1      14.542 -12.320  41.907  1.00  0.00    +0.000 NA
ATOM      3  H1  PHE A   1      14.359 -11.978  42.855  1.00  0.00    +0.000 HD
ATOM      4  H2  PHE A   1      15.493 -12.690  41.972  1.00  0.00    +0.000 HD
ENDBRANCH   1   2
BRANCH   1   5
ATOM      5  C   PHE A   1      15.888 -11.132  40.214  1.00  0.00    +0.000 C 
ATOM      6  O   PHE A   1      16.908 -10.575  40.605  1.00  0.00    +0.000 OA
BRANCH   5   7
ATOM      7  OXT PHE A   1      15.852 -11.819  39.050  1.00  0.00    +0.000 OA
ATOM      8  HXT PHE A   1      15.469 -11.322  38.299  1.00  0.00    +0.000 HD
ENDBRANCH   5   7
ENDBRANCH   1   5
BRANCH   1   9
ATOM      9  CB  PHE A   1      14.409  -9.858  41.831  1.00  0.00    +0.000 C 
BRANCH   9  13
ATOM     10  CZ  PHE A   1      10.285  -8.648  42.190  1.00  0.00    +0.000 A 
ATOM     11  CE1 PHE A   1      11.155  -8.488  43.267  1.00  0.00    +0.000 A 
ATOM     12  CD1 PHE A   1      12.493  -8.866  43.146  1.00  0.00    +0.000 A 
ATOM     13  CG  PHE A   1      12.971  -9.408  41.945  1.00  0.00    +0.000 A 
ATOM     14  CD2 PHE A   1      12.090  -9.555  40.865  1.00  0.00    +0.000 A 
ATOM     15  CE2 PHE A   1      10.753  -9.180  40.990  1.00  0.00    +0.000 A 
ENDBRANCH   9  13
ENDBRANCH   1   9
TORSDOF 5
ENDMDL
MODEL 4
REMARK VINA RESULT:    -5.359      6.413      7.914
REMARK INTER + INTRA:          -6.793
REMARK INTER:                  -6.561
REMARK INTRA:                  -0.232
REMARK UNBOUND:                -0.180
REMARK  Name = 
REMARK  5 active torsions:
REMARK  status: ('A' for Active; 'I' for Inactive)
REMARK    1  A    between atoms: CG_4  and  CB_7
REMARK    2  A    between atoms: CB_7  and  CA_8
REMARK    3  A    between atoms: CA_8  and  C_9
REMARK    4  A    between atoms: CA_8  and  N_12
REMARK    5  A    between atoms: C_9  and  OXT_11
REMARK                            x       y       z     vdW  Elec       q    Type
REMARK                         _______ _______ _______ _____ _____    ______ ____
ROOT
ATOM      1  CA  PHE A   1      17.693  -8.274  41.900  1.00  0.00    +0.000 C 
ENDROOT
BRANCH   1   2
ATOM      2  N   PHE A   1      18.390  -6.967  42.013  1.00  0.00    +0.000 NA
ATOM      3  H1  PHE A   1      18.868  -6.792  41.124  1.00  0.00    +0.000 HD
ATOM      4  H2  PHE A   1      19.162  -7.073  42.676  1.00  0.00    +0.000 HD
ENDBRANCH   1   2
BRANCH   1   5
ATOM      5  C   PHE A   1      16.675  -8.408  43.048  1.00  0.00    +0.000 C 
ATOM      6  O   PHE A   1      16.914  -8.098  44.209  1.00  0.00    +0.000 OA
BRANCH   5   7
ATOM      7  OXT PHE A   1      15.464  -8.876  42.669  1.00  0.00    +0.000 OA
ATOM      8  HXT PHE A   1      14.808  -8.934  43.392  1.00  0.00    +0.000 HD
ENDBRANCH   5   7
ENDBRANCH   1   5
BRANCH   1   9
ATOM      9  CB  PHE A   1      18.729  -9.409  41.950  1.00  0.00    +0.000 C 
BRANCH   9  13
ATOM     10  CZ  PHE A   1      17.371 -13.063  40.106  1.00  0.00    +0.000 A 
ATOM     11  CE1 PHE A   1      18.042 -13.106  41.327  1.00  0.00    +0.000 A 
ATOM     12  CD1 PHE A   1      18.469 -11.922  41.930  1.00  0.00    +0.000 A 
ATOM     13  CG  PHE A   1      18.227 -10.685  41.317  1.00  0.00    +0.000 A 
ATOM     14  CD2 PHE A   1      17.541 -10.653  40.095  1.00  0.00    +0.000 A 
ATOM     15  CE2 PHE A   1      17.120 -11.837  39.492  1.00  0.00    +0.000 A 
ENDBRANCH   9  13
ENDBRANCH   1   9
TORSDOF 5
ENDMDL
MODEL 5
REMARK VINA RESULT:    -5.200      6.003      6.960
REMARK INTER + INTRA:          -6.596
REMARK INTER:                  -6.379
REMARK INTRA:                  -0.217
REMARK UNBOUND:                -0.180
REMARK  Name = 
REMARK  5 active torsions:
REMARK  status: ('A' for Active; 'I' for Inactive)
REMARK    1  A    between atoms: CG_4  and  CB_7
REMARK    2  A    between atoms: CB_7  and  CA_8
REMARK    3  A    between atoms: CA_8  and  C_9
REMARK    4  A    between atoms: CA_8  and  N_12
REMARK    5  A    between atoms: C_9  and  OXT_11
REMARK                            x       y       z     vdW  Elec       q    Type
REMARK                         _______ _______ _______ _____ _____    ______ ____
ROOT
ATOM      1  CA  PHE A   1      16.579 -11.306  40.206  1.00  0.00    +0.000 C 
ENDROOT
BRANCH   1   2
ATOM      2  N   PHE A   1      15.532 -11.807  39.280  1.00  0.00    +0.000 NA
ATOM      3  H1  PHE A   1      14.659 -11.884  39.811  1.00  0.00    +0.000 HD
ATOM      4  H2  PHE A   1      15.749 -12.780  39.048  1.00  0.00    +0.000 HD
ENDBRANCH   1   2
BRANCH   1   5
ATOM      5  C   PHE A   1      17.345 -12.502  40.802  1.00  0.00    +0.000 C 
ATOM      6  O   PHE A   1      16.880 -13.633  40.890  1.00  0.00    +0.000 OA
BRANCH   5   7
ATOM      7  OXT PHE A   1      18.603 -12.215  41.206  1.00  0.00    +0.000 OA
ATOM      8  HXT PHE A   1      18.756 -12.325  42.166  1.00  0.00    +0.000 HD
ENDBRANCH   5   7
ENDBRANCH   1   5
BRANCH   1   9
ATOM      9  CB  PHE A   1      15.921 -10.469  41.314  1.00  0.00    +0.000 C 
BRANCH   9  13
ATOM     10  CZ  PHE A   1      18.386  -7.137  42.506  1.00  0.00    +0.000 A 
ATOM     11  CE1 PHE A   1      18.423  -7.596  41.190  1.00  0.00    +0.000 A 
ATOM     12  CD1 PHE A   1      17.614  -8.665  40.801  1.00  0.00    +0.000 A 
ATOM     13  CG  PHE A   1      16.762  -9.283  41.727  1.00  0.00    +0.000 A 
ATOM     14  CD2 PHE A   1      16.725  -8.806  43.044  1.00  0.00    +0.000 A 
ATOM     15  CE2 PHE A   1      17.537  -7.741  43.431  1.00  0.00    +0.000 A 
ENDBRANCH   9  13
ENDBRANCH   1   9
TORSDOF 5
ENDMDL
MODEL 6
REMARK VINA RESULT:    -5.186      3.985      5.239
REMARK INTER + INTRA:          -6.578
REMARK INTER:                  -6.538
REMARK INTRA:                  -0.041
REMARK UNBOUND:                -0.180
REMARK  Name = 
REMARK  5 active torsions:
REMARK  status: ('A' for Active; 'I' for Inactive)
REMARK    1  A    between atoms: CG_4  and  CB_7
REMARK    2  A    between atoms: CB_7  and  CA_8
REMARK    3  A    between atoms: CA_8  and  C_9
REMARK    4  A    between atoms: CA_8  and  N_12
REMARK    5  A    between atoms: C_9  and  OXT_11
REMARK                            x       y       z     vdW  Elec       q    Type
REMARK                         _______ _______ _______ _____ _____    ______ ____
ROOT
ATOM      1  CA  PHE A   1      15.409  -9.815  41.953  1.00  0.00    +0.000 C 
ENDROOT
BRANCH   1   2
ATOM      2  N   PHE A   1      15.534  -8.373  41.617  1.00  0.00    +0.000 NA
ATOM      3  H1  PHE A   1      16.047  -7.921  42.380  1.00  0.00    +0.000 HD
ATOM      4  H2  PHE A   1      14.605  -7.949  41.678  1.00  0.00    +0.000 HD
ENDBRANCH   1   2
BRANCH   1   5
ATOM      5  C   PHE A   1      16.728 -10.533  41.608  1.00  0.00    +0.000 C 
ATOM      6  O   PHE A   1      17.197 -11.449  42.274  1.00  0.00    +0.000 OA
BRANCH   5   7
ATOM      7  OXT PHE A   1      17.327 -10.090  40.481  1.00  0.00    +0.000 OA
ATOM      8  HXT PHE A   1      17.643 -10.798  39.884  1.00  0.00    +0.000 HD
ENDBRANCH   5   7
ENDBRANCH   1   5
BRANCH   1   9
ATOM      9  CB  PHE A   1      14.234 -10.420  41.169  1.00  0.00    +0.000 C 
BRANCH   9  13
ATOM     10  CZ  PHE A   1      10.453  -8.693  42.319  1.00  0.00    +0.000 A 
ATOM     11  CE1 PHE A   1      10.672  -9.072  40.996  1.00  0.00    +0.000 A 
ATOM     12  CD1 PHE A   1      11.891  -9.644  40.627  1.00  0.00    +0.000 A 
ATOM     13  CG  PHE A   1      12.899  -9.842  41.580  1.00  0.00    +0.000 A 
ATOM     14  CD2 PHE A   1      12.664  -9.467  42.909  1.00  0.00    +0.000 A 
ATOM     15  CE2 PHE A   1      11.448  -8.891  43.275  1.00  0.00    +0.000 A 
ENDBRANCH   9  13
ENDBRANCH   1   9
TORSDOF 5
ENDMDL
MODEL 7
REMARK VINA RESULT:    -5.179      6.506      8.025
REMARK INTER + INTRA:          -6.570
REMARK INTER:                  -6.410
REMARK INTRA:                  -0.160
REMARK UNBOUND:                -0.180
REMARK  Name = 
REMARK  5 active torsions:
REMARK  status: ('A' for Active; 'I' for Inactive)
REMARK    1  A    between atoms: CG_4  and  CB_7
REMARK    2  A    between atoms: CB_7  and  CA_8
REMARK    3  A    between atoms: CA_8  and  C_9
REMARK    4  A    between atoms: CA_8  and  N_12
REMARK    5  A    between atoms: C_9  and  OXT_11
REMARK                            x       y       z     vdW  Elec       q    Type
REMARK                         _______ _______ _______ _____ _____    ______ ____
ROOT
ATOM      1  CA  PHE A   1      16.884  -8.576  42.031  1.00  0.00    +0.000 C 
ENDROOT
BRANCH   1   2
ATOM      2  N   PHE A   1      15.651  -7.902  41.550  1.00  0.00    +0.000 NA
ATOM      3  H1  PHE A   1      15.925  -7.241  40.817  1.00  0.00    +0.000 HD
ATOM      4  H2  PHE A   1      15.308  -7.293  42.296  1.00  0.00    +0.000 HD
ENDBRANCH   1   2
BRANCH   1   5
ATOM      5  C   PHE A   1      17.735  -7.569  42.827  1.00  0.00    +0.000 C 
ATOM      6  O   PHE A   1      18.372  -6.658  42.310  1.00  0.00    +0.000 OA
BRANCH   5   7
ATOM      7  OXT PHE A   1      17.707  -7.749  44.167  1.00  0.00    +0.000 OA
ATOM      8  HXT PHE A   1      17.587  -6.927  44.684  1.00  0.00    +0.000 HD
ENDBRANCH   5   7
ENDBRANCH   1   5
BRANCH   1   9
ATOM      9  CB  PHE A   1      17.666  -9.126  40.828  1.00  0.00    +0.000 C 
BRANCH   9  13
ATOM     10  CZ  PHE A   1      17.917 -13.431  40.905  1.00  0.00    +0.000 A 
ATOM     11  CE1 PHE A   1      17.514 -12.777  39.743  1.00  0.00    +0.000 A 
ATOM     12  CD1 PHE A   1      17.446 -11.383  39.714  1.00  0.00    +0.000 A 
ATOM     13  CG  PHE A   1      17.783 -10.633  40.849  1.00  0.00    +0.000 A 
ATOM     14  CD2 PHE A   1      18.198 -11.300  42.009  1.00  0.00    +0.000 A 
ATOM     15  CE2 PHE A   1      18.260 -12.693  42.037  1.00  0.00    +0.000 A 
ENDBRANCH   9  13
ENDBRANCH   1   9
TORSDOF 5
ENDMDL
MODEL 8
REMARK VINA RESULT:    -5.027      4.655      6.374
REMARK INTER + INTRA:          -6.382
REMARK INTER:                  -6.217
REMARK INTRA:                  -0.166
REMARK UNBOUND:                -0.180
REMARK  Name = 
REMARK  5 active torsions:
REMARK  status: ('A' for Active; 'I' for Inactive)
REMARK    1  A    between atoms: CG_4  and  CB_7
REMARK    2  A    between atoms: CB_7  and  CA_8
REMARK    3  A    between atoms: CA_8  and  C_9
REMARK    4  A    between atoms: CA_8  and  N_12
REMARK    5  A    between atoms: C_9  and  OXT_11
REMARK                            x       y       z     vdW  Elec       q    Type
REMARK                         _______ _______ _______ _____ _____    ______ ____
ROOT
ATOM      1  CA  PHE A   1      13.542 -10.276  41.187  1.00  0.00    +0.000 C 
ENDROOT
BRANCH   1   2
ATOM      2  N   PHE A   1      13.978  -9.091  41.971  1.00  0.00    +0.000 NA
ATOM      3  H1  PHE A   1      13.556  -8.262  41.540  1.00  0.00    +0.000 HD
ATOM      4  H2  PHE A   1      14.979  -8.953  41.810  1.00  0.00    +0.000 HD
ENDBRANCH   1   2
BRANCH   1   5
ATOM      5  C   PHE A   1      12.003 -10.328  41.159  1.00  0.00    +0.000 C 
ATOM      6  O   PHE A   1      11.329 -10.966  41.958  1.00  0.00    +0.000 OA
BRANCH   5   7
ATOM      7  OXT PHE A   1      11.437  -9.582  40.184  1.00  0.00    +0.000 OA
ATOM      8  HXT PHE A   1      10.846 -10.080  39.584  1.00  0.00    +0.000 HD
ENDBRANCH   5   7
ENDBRANCH   1   5
BRANCH   1   9
ATOM      9  CB  PHE A   1      14.123 -11.549  41.824  1.00  0.00    +0.000 C 
BRANCH   9  13
ATOM     10  CZ  PHE A   1      17.880 -12.701  40.047  1.00  0.00    +0.000 A 
ATOM     11  CE1 PHE A   1      17.567 -13.109  41.343  1.00  0.00    +0.000 A 
ATOM     12  CD1 PHE A   1      16.345 -12.748  41.912  1.00  0.00    +0.000 A 
ATOM     13  CG  PHE A   1      15.426 -11.976  41.188  1.00  0.00    +0.000 A 
ATOM     14  CD2 PHE A   1      15.746 -11.580  39.883  1.00  0.00    +0.000 A 
ATOM     15  CE2 PHE A   1      16.970 -11.938  39.318  1.00  0.00    +0.000 A 
ENDBRANCH   9  13
ENDBRANCH   1   9
TORSDOF 5
ENDMDL
MODEL 9
REMARK VINA RESULT:    -4.943      4.626      6.057
REMARK INTER + INTRA:          -6.280
REMARK INTER:                  -6.092
REMARK INTRA:                  -0.187
REMARK UNBOUND:                -0.180
REMARK  Name = 
REMARK  5 active torsions:
REMARK  status: ('A' for Active; 'I' for Inactive)
REMARK    1  A    between atoms: CG_4  and  CB_7
REMARK    2  A    between atoms: CB_7  and  CA_8
REMARK    3  A    between atoms: CA_8  and  C_9
REMARK    4  A    between atoms: CA_8  and  N_12
REMARK    5  A    between atoms: C_9  and  OXT_11
REMARK                            x       y       z     vdW  Elec       q    Type
REMARK                         _______ _______ _______ _____ _____    ______ ____
ROOT
ATOM      1  CA  PHE A   1      13.941 -10.813  41.959  1.00  0.00    +0.000 C 
ENDROOT
BRANCH   1   2
ATOM      2  N   PHE A   1      12.869 -11.773  42.327  1.00  0.00    +0.000 NA
ATOM      3  H1  PHE A   1      12.269 -11.898  41.506  1.00  0.00    +0.000 HD
ATOM      4  H2  PHE A   1      12.249 -11.317  43.001  1.00  0.00    +0.000 HD
ENDBRANCH   1   2
BRANCH   1   5
ATOM      5  C   PHE A   1      13.302  -9.533  41.386  1.00  0.00    +0.000 C 
ATOM      6  O   PHE A   1      13.762  -8.410  41.552  1.00  0.00    +0.000 OA
BRANCH   5   7
ATOM      7  OXT PHE A   1      12.188  -9.747  40.650  1.00  0.00    +0.000 OA
ATOM      8  HXT PHE A   1      11.416 -10.057  41.165  1.00  0.00    +0.000 HD
ENDBRANCH   5   7
ENDBRANCH   1   5
BRANCH   1   9
ATOM      9  CB  PHE A   1      14.878 -11.465  40.930  1.00  0.00    +0.000 C 
BRANCH   9  13
ATOM     10  CZ  PHE A   1      19.014 -11.114  42.099  1.00  0.00    +0.000 A 
ATOM     11  CE1 PHE A   1      18.366 -12.345  42.190  1.00  0.00    +0.000 A 
ATOM     12  CD1 PHE A   1      17.032 -12.461  41.798  1.00  0.00    +0.000 A 
ATOM     13  CG  PHE A   1      16.336 -11.346  41.311  1.00  0.00    +0.000 A 
ATOM     14  CD2 PHE A   1      17.000 -10.117  41.213  1.00  0.00    +0.000 A 
ATOM     15  CE2 PHE A   1      18.332 -10.002  41.610  1.00  0.00    +0.000 A 
ENDBRANCH   9  13
ENDBRANCH   1   9
TORSDOF 5
ENDMDL
